# vtk DataFile Version 2.0
Mesquite Mesh x_0.vtk .
ASCII
DATASET UNSTRUCTURED_GRID
POINTS 315 float
0 0 0
0 7 0
0 0.5 0
0 1 0
0 1.5 0
0 2 0
0 2.5 0
0 3 0
0 3.5 0
0 4 0
0 4.5 0
0 5 0
0 5.5 0
0 6 0
0 6.5 0
0 7 10
0 7 0.5
0 7 1
0 7 1.5
0 7 2
0 7 2.5
0 7 3
0 7 3.5
0 7 4
0 7 4.5
0 7 5
0 7 5.5
0 7 6
0 7 6.5
0 7 7
0 7 7.5
0 7 8
0 7 8.5
0 7 9
0 7 9.5
0 0 10
0 6.5 10
0 6 10
0 5.5 10
0 5 10
0 4.5 10
0 4 10
0 3.5 10
0 3 10
0 2.5 10
0 2 10
0 1.5 10
0 1 10
0 0.5 10
0 0 9.5
0 0 9
0 0 8.5
0 0 8
0 0 7.5
0 0 7
0 0 6.5
0 0 6
0 0 5.5
0 0 5
0 0 4.5
0 0 4
0 0 3.5
0 0 3
0 0 2.5
0 0 2
0 0 1.5
0 0 1
0 0 0.5
0 0.5 0.5
0 1 0.5
0 1.5 0.5
0 2 0.5
0 2.5 0.5
0 3 0.5
0 3.5 0.5
0 4 0.5
0 4.5 0.5
0 5 0.5
0 5.5 0.5
0 6 0.5
0 6.5 0.5
0 0.5 1
0 1 1
0 1.5 1
0 2 1
0 2.5 1
0 3 1
0 3.5 1
0 4 1
0 4.5 1
0 5 1
0 5.5 1
0 6 1
0 6.5 1
0 0.5 1.5
0 1 1.5
0 1.5 1.5
0 2 1.5
0 2.5 1.5
0 3 1.5
0 3.5 1.5
0 4 1.5
0 4.5 1.5
0 5 1.5
0 5.5 1.5
0 6 1.5
0 6.5 1.5
0 0.5 2
0 1 2
0 1.5 2
0 2 2
0 2.5 2
0 3 2
0 3.5 2
0 4 2
0 4.5 2
0 5 2
0 5.5 2
0 6 2
0 6.5 2
0 0.5 2.5
0 1 2.5
0 1.5 2.5
0 2 2.5
0 2.5 2.5
0 3 2.5
0 3.5 2.5
0 4 2.5
0 4.5 2.5
0 5 2.5
0 5.5 2.5
0 6 2.5
0 6.5 2.5
0 0.5 3
0 1 3
0 1.5 3
0 2 3
0 2.5 3
0 3 3
0 3.5 3
0 4 3
0 4.5 3
0 5 3
0 5.5 3
0 6 3
0 6.5 3
0 0.5 3.5
0 1 3.5
0 1.5 3.5
0 2 3.5
0 2.5 3.5
0 3 3.5
0 3.5 3.5
0 4 3.5
0 4.5 3.5
0 5 3.5
0 5.5 3.5
0 6 3.5
0 6.5 3.5
0 0.5 4
0 1 4
0 1.5 4
0 2 4
0 2.5 4
0 3 4
0 3.5 4
0 4 4
0 4.5 4
0 5 4
0 5.5 4
0 6 4
0 6.5 4
0 0.5 4.5
0 1 4.5
0 1.5 4.5
0 2 4.5
0 2.5 4.5
0 3 4.5
0 3.5 4.5
0 4 4.5
0 4.5 4.5
0 5 4.5
0 5.5 4.5
0 6 4.5
0 6.5 4.5
0 0.5 5
0 1 5
0 1.5 5
0 2 5
0 2.5 5
0 3 5
0 3.5 5
0 4 5
0 4.5 5
0 5 5
0 5.5 5
0 6 5
0 6.5 5
0 0.5 5.5
0 1 5.5
0 1.5 5.5
0 2 5.5
0 2.5 5.5
0 3 5.5
0 3.5 5.5
0 4 5.5
0 4.5 5.5
0 5 5.5
0 5.5 5.5
0 6 5.5
0 6.5 5.5
0 0.5 6
0 1 6
0 1.5 6
0 2 6
0 2.5 6
0 3 6
0 3.5 6
0 4 6
0 4.5 6
0 5 6
0 5.5 6
0 6 6
0 6.5 6
0 0.5 6.5
0 1 6.5
0 1.5 6.5
0 2 6.5
0 2.5 6.5
0 3 6.5
0 3.5 6.5
0 4 6.5
0 4.5 6.5
0 5 6.5
0 5.5 6.5
0 6 6.5
0 6.5 6.5
0 0.5 7
0 1 7
0 1.5 7
0 2 7
0 2.5 7
0 3 7
0 3.5 7
0 4 7
0 4.5 7
0 5 7
0 5.5 7
0 6 7
0 6.5 7
0 0.5 7.5
0 1 7.5
0 1.5 7.5
0 2 7.5
0 2.5 7.5
0 3 7.5
0 3.5 7.5
0 4 7.5
0 4.5 7.5
0 5 7.5
0 5.5 7.5
0 6 7.5
0 6.5 7.5
0 0.5 8
0 1 8
0 1.5 8
0 2 8
0 2.5 8
0 3 8
0 3.5 8
0 4 8
0 4.5 8
0 5 8
0 5.5 8
0 6 8
0 6.5 8
0 0.5 8.5
0 1 8.5
0 1.5 8.5
0 2 8.5
0 2.5 8.5
0 3 8.5
0 3.5 8.5
0 4 8.5
0 4.5 8.5
0 5 8.5
0 5.5 8.5
0 6 8.5
0 6.5 8.5
0 0.5 9
0 1 9
0 1.5 9
0 2 9
0 2.5 9
0 3 9
0 3.5 9
0 4 9
0 4.5 9
0 5 9
0 5.5 9
0 6 9
0 6.5 9
0 0.5 9.5
0 1 9.5
0 1.5 9.5
0 2 9.5
0 2.5 9.5
0 3 9.5
0 3.5 9.5
0 4 9.5
0 4.5 9.5
0 5 9.5
0 5.5 9.5
0 6 9.5
0 6.5 9.5
CELLS 280 1400
4 314 34 15 36
4 313 314 36 37
4 312 313 37 38
4 311 312 38 39
4 310 311 39 40
4 309 310 40 41
4 308 309 41 42
4 307 308 42 43
4 306 307 43 44
4 305 306 44 45
4 304 305 45 46
4 303 304 46 47
4 302 303 47 48
4 49 302 48 35
4 301 33 34 314
4 300 301 314 313
4 299 300 313 312
4 298 299 312 311
4 297 298 311 310
4 296 297 310 309
4 295 296 309 308
4 294 295 308 307
4 293 294 307 306
4 292 293 306 305
4 291 292 305 304
4 290 291 304 303
4 289 290 303 302
4 50 289 302 49
4 288 32 33 301
4 287 288 301 300
4 286 287 300 299
4 285 286 299 298
4 284 285 298 297
4 283 284 297 296
4 282 283 296 295
4 281 282 295 294
4 280 281 294 293
4 279 280 293 292
4 278 279 292 291
4 277 278 291 290
4 276 277 290 289
4 51 276 289 50
4 275 31 32 288
4 274 275 288 287
4 273 274 287 286
4 272 273 286 285
4 271 272 285 284
4 270 271 284 283
4 269 270 283 282
4 268 269 282 281
4 267 268 281 280
4 266 267 280 279
4 265 266 279 278
4 264 265 278 277
4 263 264 277 276
4 52 263 276 51
4 262 30 31 275
4 261 262 275 274
4 260 261 274 273
4 259 260 273 272
4 258 259 272 271
4 257 258 271 270
4 256 257 270 269
4 255 256 269 268
4 254 255 268 267
4 253 254 267 266
4 252 253 266 265
4 251 252 265 264
4 250 251 264 263
4 53 250 263 52
4 249 29 30 262
4 248 249 262 261
4 247 248 261 260
4 246 247 260 259
4 245 246 259 258
4 244 245 258 257
4 243 244 257 256
4 242 243 256 255
4 241 242 255 254
4 240 241 254 253
4 239 240 253 252
4 238 239 252 251
4 237 238 251 250
4 54 237 250 53
4 236 28 29 249
4 235 236 249 248
4 234 235 248 247
4 233 234 247 246
4 232 233 246 245
4 231 232 245 244
4 230 231 244 243
4 229 230 243 242
4 228 229 242 241
4 227 228 241 240
4 226 227 240 239
4 225 226 239 238
4 224 225 238 237
4 55 224 237 54
4 223 27 28 236
4 222 223 236 235
4 221 222 235 234
4 220 221 234 233
4 219 220 233 232
4 218 219 232 231
4 217 218 231 230
4 216 217 230 229
4 215 216 229 228
4 214 215 228 227
4 213 214 227 226
4 212 213 226 225
4 211 212 225 224
4 56 211 224 55
4 210 26 27 223
4 209 210 223 222
4 208 209 222 221
4 207 208 221 220
4 206 207 220 219
4 205 206 219 218
4 204 205 218 217
4 203 204 217 216
4 202 203 216 215
4 201 202 215 214
4 200 201 214 213
4 199 200 213 212
4 198 199 212 211
4 57 198 211 56
4 197 25 26 210
4 196 197 210 209
4 195 196 209 208
4 194 195 208 207
4 193 194 207 206
4 192 193 206 205
4 191 192 205 204
4 190 191 204 203
4 189 190 203 202
4 188 189 202 201
4 187 188 201 200
4 186 187 200 199
4 185 186 199 198
4 58 185 198 57
4 184 24 25 197
4 183 184 197 196
4 182 183 196 195
4 181 182 195 194
4 180 181 194 193
4 179 180 193 192
4 178 179 192 191
4 177 178 191 190
4 176 177 190 189
4 175 176 189 188
4 174 175 188 187
4 173 174 187 186
4 172 173 186 185
4 59 172 185 58
4 171 23 24 184
4 170 171 184 183
4 169 170 183 182
4 168 169 182 181
4 167 168 181 180
4 166 167 180 179
4 165 166 179 178
4 164 165 178 177
4 163 164 177 176
4 162 163 176 175
4 161 162 175 174
4 160 161 174 173
4 159 160 173 172
4 60 159 172 59
4 158 22 23 171
4 157 158 171 170
4 156 157 170 169
4 155 156 169 168
4 154 155 168 167
4 153 154 167 166
4 152 153 166 165
4 151 152 165 164
4 150 151 164 163
4 149 150 163 162
4 148 149 162 161
4 147 148 161 160
4 146 147 160 159
4 61 146 159 60
4 145 21 22 158
4 144 145 158 157
4 143 144 157 156
4 142 143 156 155
4 141 142 155 154
4 140 141 154 153
4 139 140 153 152
4 138 139 152 151
4 137 138 151 150
4 136 137 150 149
4 135 136 149 148
4 134 135 148 147
4 133 134 147 146
4 62 133 146 61
4 132 20 21 145
4 131 132 145 144
4 130 131 144 143
4 129 130 143 142
4 128 129 142 141
4 127 128 141 140
4 126 127 140 139
4 125 126 139 138
4 124 125 138 137
4 123 124 137 136
4 122 123 136 135
4 121 122 135 134
4 120 121 134 133
4 63 120 133 62
4 119 19 20 132
4 118 119 132 131
4 117 118 131 130
4 116 117 130 129
4 115 116 129 128
4 114 115 128 127
4 113 114 127 126
4 112 113 126 125
4 111 112 125 124
4 110 111 124 123
4 109 110 123 122
4 108 109 122 121
4 107 108 121 120
4 64 107 120 63
4 106 18 19 119
4 105 106 119 118
4 104 105 118 117
4 103 104 117 116
4 102 103 116 115
4 101 102 115 114
4 100 101 114 113
4 99 100 113 112
4 98 99 112 111
4 97 98 111 110
4 96 97 110 109
4 95 96 109 108
4 94 95 108 107
4 65 94 107 64
4 93 17 18 106
4 92 93 106 105
4 91 92 105 104
4 90 91 104 103
4 89 90 103 102
4 88 89 102 101
4 87 88 101 100
4 86 87 100 99
4 85 86 99 98
4 84 85 98 97
4 83 84 97 96
4 82 83 96 95
4 81 82 95 94
4 66 81 94 65
4 80 16 17 93
4 79 80 93 92
4 78 79 92 91
4 77 78 91 90
4 76 77 90 89
4 75 76 89 88
4 74 75 88 87
4 73 74 87 86
4 72 73 86 85
4 71 72 85 84
4 70 71 84 83
4 69 70 83 82
4 68 69 82 81
4 67 68 81 66
4 14 1 16 80
4 13 14 80 79
4 12 13 79 78
4 11 12 78 77
4 10 11 77 76
4 9 10 76 75
4 8 9 75 74
4 7 8 74 73
4 6 7 73 72
4 5 6 72 71
4 4 5 71 70
4 3 4 70 69
4 2 3 69 68
4 0 2 68 67
CELL_TYPES 280
9
9
9
9
9
9
9
9
9
9
9
9
9
9
9
9
9
9
9
9
9
9
9
9
9
9
9
9
9
9
9
9
9
9
9
9
9
9
9
9
9
9
9
9
9
9
9
9
9
9
9
9
9
9
9
9
9
9
9
9
9
9
9
9
9
9
9
9
9
9
9
9
9
9
9
9
9
9
9
9
9
9
9
9
9
9
9
9
9
9
9
9
9
9
9
9
9
9
9
9
9
9
9
9
9
9
9
9
9
9
9
9
9
9
9
9
9
9
9
9
9
9
9
9
9
9
9
9
9
9
9
9
9
9
9
9
9
9
9
9
9
9
9
9
9
9
9
9
9
9
9
9
9
9
9
9
9
9
9
9
9
9
9
9
9
9
9
9
9
9
9
9
9
9
9
9
9
9
9
9
9
9
9
9
9
9
9
9
9
9
9
9
9
9
9
9
9
9
9
9
9
9
9
9
9
9
9
9
9
9
9
9
9
9
9
9
9
9
9
9
9
9
9
9
9
9
9
9
9
9
9
9
9
9
9
9
9
9
9
9
9
9
9
9
9
9
9
9
9
9
9
9
9
9
9
9
9
9
9
9
9
9
9
9
9
9
9
9
9
9
9
9
9
9
9
9
9
9
9
9
POINT_DATA 315
SCALARS fixed int
LOOKUP_TABLE default
0
0
0
0
0
0
0
0
0
0
0
0
0
0
0
0
0
0
0
0
0
0
0
0
0
0
0
0
0
0
0
0
0
0
0
0
0
0
0
0
0
0
0
0
0
0
0
0
0
0
0
0
0
0
0
0
0
0
0
0
0
0
0
0
0
0
0
0
0
0
0
0
0
0
0
0
0
0
0
0
0
0
0
0
0
0
0
0
0
0
0
0
0
0
0
0
0
0
0
0
0
0
0
0
0
0
0
0
0
0
0
0
0
0
0
0
0
0
0
0
0
0
0
0
0
0
0
0
0
0
0
0
0
0
0
0
0
0
0
0
0
0
0
0
0
0
0
0
0
0
0
0
0
0
0
0
0
0
0
0
0
0
0
0
0
0
0
0
0
0
0
0
0
0
0
0
0
0
0
0
0
0
0
0
0
0
0
0
0
0
0
0
0
0
0
0
0
0
0
0
0
0
0
0
0
0
0
0
0
0
0
0
0
0
0
0
0
0
0
0
0
0
0
0
0
0
0
0
0
0
0
0
0
0
0
0
0
0
0
0
0
0
0
0
0
0
0
0
0
0
0
0
0
0
0
0
0
0
0
0
0
0
0
0
0
0
0
0
0
0
0
0
0
0
0
0
0
0
0
0
0
0
0
0
0
0
0
0
0
0
0
0
0
0
0
0
0
0
0
0
0
0
0
0
0
0
0
0
0
0
0
0
0
0
0
VECTORS gradient double
0 0.00433041 0.00856958
0 -0.00511713 -0.00132949
0 -0.00463344 0.0128276
0 -0.00497534 0.0125702
0 -0.00534978 0.0122506
0 -0.00575354 0.0118527
0 -0.00617769 0.0113583
0 -0.00660467 0.0107494
0 -0.00700583 0.0100128
0 -0.00734163 0.00914829
0 -0.00756779 0.0081766
0 -0.00764793 0.00714286
0 -0.00756779 0.00610911
0 -0.00734163 0.00513742
0 -0.00700583 0.00427289
0 0.00052144 -0.00641402
0 -0.00426175 -0.00637886
0 -0.00445628 -0.00648324
0 -0.00462856 -0.00656845
0 -0.00478179 -0.00663873
0 -0.00491868 -0.00669725
0 -0.00504152 -0.00674643
0 -0.00515222 -0.00678809
0 -0.0052524 -0.00682367
0 -0.00534341 -0.00685425
0 -0.00542641 -0.00688073
0 -0.00550235 -0.00690378
0 -0.00557208 -0.00692397
0 -0.00563629 -0.00694174
0 -0.00569561 -0.00695746
0 -0.00575055 -0.00697143
0 -0.00580156 -0.00698389
0 -0.00584906 -0.00699506
0 -0.00589337 -0.0070051
0 -0.0059348 -0.00701416
0 0.00825674 -0.0018747
0 0.00690376 -0.00613915
0 0.00694196 -0.00647001
0 0.00696519 -0.00680531
0 0.00697298 -0.00714286
0 0.00696519 -0.00748041
0 0.00694196 -0.0078157
0 0.00690376 -0.00814657
0 0.00685133 -0.00847096
0 0.00678565 -0.00878704
0 0.00670789 -0.00909323
0 0.00661935 -0.00938822
0 0.00652144 -0.00967097
0 0.00641557 -0.00994074
0 0.010147 0.00642492
0 0.0102328 0.00638089
0 0.010323 0.00633294
0 0.0104178 0.00628062
0 0.0105176 0.00622344
0 0.0106226 0.00616082
0 0.0107331 0.00609211
0 0.0108494 0.00601659
0 0.0109719 0.00593342
0 0.0111008 0.00584165
0 0.0112363 0.00574024
0 0.0113787 0.00562797
0 0.0115281 0.0055035
0 0.0116846 0.00536532
0 0.011848 0.00521177
0 0.0120181 0.00504101
0 0.0121944 0.00485106
0 0.012376 0.00463982
0 0.0125618 0.00440509
0 -0.000500786 8.95645e-05
0 -0.00054576 9.61526e-05
0 -0.000596256 0.000101462
0 -0.000651944 0.000104283
0 -0.000711497 0.000103039
0 -0.000772117 9.59988e-05
0 -0.000829244 8.17692e-05
0 -0.000876871 5.99789e-05
0 -0.000908704 3.18137e-05
0 -0.000919918 1.98254e-19
0 -0.000908704 -3.18137e-05
0 -0.000876871 -5.99789e-05
0 -0.000829244 -8.17692e-05
0 -0.00048913 8.67249e-05
0 -0.000530154 9.16853e-05
0 -0.00057536 9.51197e-05
0 -0.000624152 9.60027e-05
0 -0.000675112 9.31093e-05
0 -0.000725733 8.52166e-05
0 -0.000772348 7.14666e-05
0 -0.000810462 5.18037e-05
0 -0.000835588 2.72777e-05
0 -0.000844378 -3.96508e-19
0 -0.000835588 -2.72777e-05
0 -0.000810462 -5.18037e-05
0 -0.000772348 -7.14666e-05
0 -0.000477004 8.3392e-05
0 -0.000514292 8.69382e-05
0 -0.000554676 8.88404e-05
0 -0.000597427 8.8253e-05
0 -0.000641165 8.42407e-05
0 -0.000683718 7.59501e-05
0 -0.000722152 6.28716e-05
0 -0.000753073 4.51212e-05
0 -0.000773225 2.36118e-05
0 -0.000780233 0
0 -0.000773225 -2.36118e-05
0 -0.000753073 -4.51212e-05
0 -0.000722152 -6.28716e-05
0 -0.000464608 7.97665e-05
0 -0.00049842 8.2111e-05
0 -0.00053446 8.27841e-05
0 -0.000571959 8.11022e-05
0 -0.000609636 7.63604e-05
0 -0.000645645 6.79713e-05
0 -0.00067764 5.56516e-05
0 -0.000703035 3.96045e-05
0 -0.000719426 2.0616e-05
0 -0.000725098 7.93016e-19
0 -0.000719426 -2.0616e-05
0 -0.000703035 -3.96045e-05
0 -0.00067764 -5.56516e-05
0 -0.000452111 7.59996e-05
0 -0.000482727 7.73407e-05
0 -0.00051489 7.70435e-05
0 -0.00054784 7.45635e-05
0 -0.000580427 6.93753e-05
0 -0.000611095 6.10815e-05
0 -0.000637969 4.95452e-05
0 -0.000659056 3.50077e-05
0 -0.000672556 1.81417e-05
0 -0.000677208 3.96508e-19
0 -0.000672556 -1.81417e-05
0 -0.000659056 -3.50077e-05
0 -0.000637969 -4.95452e-05
0 -0.000439649 7.22026e-05
0 -0.000467352 7.27176e-05
0 -0.000496074 7.16658e-05
0 -0.000525094 6.86183e-05
0 -0.000553397 6.31877e-05
0 -0.000579681 5.51115e-05
0 -0.00060244 4.43463e-05
0 -0.000620124 3.11437e-05
0 -0.000631368 1.60779e-05
0 -0.000635228 3.96508e-19
0 -0.000631368 -1.60779e-05
0 -0.000620124 -3.11437e-05
0 -0.00060244 -4.43463e-05
0 -0.000427331 6.84543e-05
0 -0.000452398 6.82981e-05
0 -0.000478076 6.66686e-05
0 -0.000503702 6.32312e-05
0 -0.000528389 5.77035e-05
0 -0.00055105 4.99187e-05
0 -0.000570471 3.98919e-05
0 -0.000585435 2.78692e-05
0 -0.000594894 1.43405e-05
0 -0.000598132 -1.98254e-19
0 -0.000594894 -1.43405e-05
0 -0.000585435 -2.78692e-05
0 -0.000570471 -3.98919e-05
0 -0.000415241 6.48094e-05
0 -0.000437932 6.41142e-05
0 -0.000460923 6.205e-05
0 -0.000483616 5.83584e-05
0 -0.00050524 5.28363e-05
0 -0.00052489 4.53839e-05
0 -0.000541579 3.60521e-05
0 -0.000554346 2.50732e-05
0 -0.000562375 1.28655e-05
0 -0.000565116 5.94762e-19
0 -0.000562375 -1.28655e-05
0 -0.000554346 -2.50732e-05
0 -0.000541579 -3.60521e-05
0 -0.00040344 6.13037e-05
0 -0.000423996 6.01808e-05
0 -0.000444619 5.7797e-05
0 -0.000464773 5.3954e-05
0 -0.000483794 4.85085e-05
0 -0.000500923 4.14078e-05
0 -0.000515359 3.27229e-05
0 -0.000526333 2.2669e-05
0 -0.000533205 1.16036e-05
0 -0.000535545 -3.96508e-19
0 -0.000533205 -1.16036e-05
0 -0.000526333 -2.2669e-05
0 -0.000515359 -3.27229e-05
0 -0.000391972 5.7959e-05
0 -0.000410614 5.65014e-05
0 -0.00042915 5.38894e-05
0 -0.000447102 4.99725e-05
0 -0.0004639 4.46518e-05
0 -0.000478909 3.79074e-05
0 -0.000491472 2.98208e-05
0 -0.000500969 2.05881e-05
0 -0.000506894 1.05161e-05
0 -0.000508907 3.96508e-19
0 -0.000506894 -1.05161e-05
0 -0.000500969 -2.05881e-05
0 -0.000491472 -2.98208e-05
0 -0.000380867 5.47873e-05
0 -0.000397795 5.30718e-05
0 -0.000414489 5.0304e-05
0 -0.000430528 4.63708e-05
0 -0.000445421 4.12066e-05
0 -0.000458635 3.48136e-05
0 -0.000469629 2.72777e-05
0 -0.000477901 1.87761e-05
0 -0.000483043 9.57287e-06
0 -0.000484788 1.98254e-19
0 -0.000483043 -9.57287e-06
0 -0.000477901 -1.87761e-05
0 -0.000469629 -2.72777e-05
0 -0.000370142 5.1793e-05
0 -0.000385536 4.98828e-05
0 -0.000400604 4.70161e-05
0 -0.000414976 4.31091e-05
0 -0.00042823 3.81211e-05
0 -0.000439917 3.20688e-05
0 -0.000449588 2.50385e-05
0 -0.000456834 1.71895e-05
0 -0.000461325 8.74969e-06
0 -0.000462847 1.98254e-19
0 -0.000461325 -8.74969e-06
0 -0.000456834 -1.71895e-05
0 -0.000449588 -2.50385e-05
0 -0.000359808 4.89757e-05
0 -0.000373828 4.69223e-05
0 -0.000387459 4.40012e-05
0 -0.000400374 4.01514e-05
0 -0.000412212 3.53504e-05
0 -0.000422592 2.96246e-05
0 -0.000431141 2.30577e-05
0 -0.000437522 1.57928e-05
0 -0.000441467 8.02725e-06
0 -0.000442802 -1.98254e-19
0 -0.000441467 -8.02725e-06
0 -0.000437522 -1.57928e-05
0 -0.000431141 -2.30577e-05
0 -0.000349866 4.63314e-05
0 -0.000362656 4.41766e-05
0 -0.000375014 4.12356e-05
0 -0.000386653 3.74652e-05
0 -0.000397263 3.28559e-05
0 -0.000406519 2.74402e-05
0 -0.000414111 2.12981e-05
0 -0.000419758 1.45575e-05
0 -0.000423241 7.38993e-06
0 -0.000424419 0
0 -0.000423241 -7.38993e-06
0 -0.000419758 -1.45575e-05
0 -0.000414111 -2.12981e-05
0 -0.000340314 4.38536e-05
0 -0.000352 4.16313e-05
0 -0.000363229 3.8697e-05
0 -0.000373748 3.50213e-05
0 -0.000383288 3.06041e-05
0 -0.000391574 2.54815e-05
0 -0.000398343 1.97285e-05
0 -0.000403364 1.34598e-05
0 -0.000406455 6.82497e-06
0 -0.000407499 0
0 -0.000406455 -6.82497e-06
0 -0.000403364 -1.34598e-05
0 -0.000398343 -1.97285e-05
0 -0.000331144 4.15347e-05
0 -0.000341841 3.92721e-05
0 -0.000352066 3.63648e-05
0 -0.000361597 3.27939e-05
0 -0.000370202 2.85662e-05
0 -0.000377646 2.37192e-05
0 -0.000383706 1.83231e-05
0 -0.00038819 1.24803e-05
0 -0.000390944 6.32191e-06
0 -0.000391874 0
0 -0.000390944 -6.32191e-06
0 -0.00038819 -1.24803e-05
0 -0.000383706 -1.83231e-05
0 -0.000322347 3.9366e-05
0 -0.000332156 3.70849e-05
0 -0.000341486 3.422e-05
0 -0.000350145 3.07602e-05
0 -0.00035793 2.67172e-05
0 -0.000364639 2.21288e-05
0 -0.000370085 1.70601e-05
0 -0.000374105 1.16029e-05
0 -0.00037657 5.8721e-06
0 -0.000377401 -1.98254e-19
0 -0.00037657 -5.8721e-06
0 -0.000374105 -1.16029e-05
0 -0.000370085 -1.70601e-05
0 -0.000313912 3.73386e-05
0 -0.000322921 3.50565e-05
0 -0.000331453 3.22451e-05
0 -0.000339339 2.88998e-05
0 -0.000346402 2.50355e-05
0 -0.000352469 2.06893e-05
0 -0.00035738 1.59213e-05
0 -0.000360997 1.08139e-05
0 -0.000363212 5.46833e-06
0 -0.000363958 3.96508e-19
0 -0.000363212 -5.46833e-06
0 -0.000360997 -1.08139e-05
0 -0.00035738 -1.59213e-05
0 -0.000305826 3.54436e-05
0 -0.000314114 3.3174e-05
0 -0.000321933 3.04245e-05
0 -0.000329132 2.71949e-05
0 -0.000335557 2.35023e-05
0 -0.00034106 1.93825e-05
0 -0.000345504 1.48912e-05
0 -0.000348769 1.0102e-05
0 -0.000350766 5.10456e-06
0 -0.000351439 -3.96508e-19
0 -0.000350766 -5.10456e-06
0 -0.000348769 -1.0102e-05
0 -0.000345504 -1.48912e-05
