# vtk DataFile Version 3.0
Mesquite Mesh
ASCII
DATASET UNSTRUCTURED_GRID
POINTS 315 double
0 0 10
7 0 10
0.2745193895 0 10
0.5635487233 0 10
0.8842129814 0 10
1.249596828 0 10
1.662006555 0 10
2.115114899 0 10
2.599883276 0 10
3.10896176 0 10
3.638155813 0 10
4.186923393 0 10
4.75948343 0 10
5.368691337 0 10
6.052163896 0 10
7 0 0
7 0 9.715462534
7 0 9.388069458
7 0 8.999825861
7 0 8.547963231
7 0 8.039813598
7 0 7.485468908
7 0 6.894962087
7 0 6.277845909
7 0 5.643251168
7 0 5
7 0 4.356748832
7 0 3.722154091
7 0 3.105037913
7 0 2.514531092
7 0 1.960186402
7 0 1.452036769
7 0 1.000174139
7 0 0.6119305417
7 0 0.2845374659
0 0 0
6.052163896 0 0
5.368691337 0 0
4.75948343 0 0
4.186923393 0 0
3.638155813 0 0
3.10896176 0 0
2.599883276 0 0
2.115114899 0 0
1.662006555 0 0
1.249596828 0 0
0.8842129814 0 0
0.5635487233 0 0
0.2745193895 0 0
0 0 1.234325008
0 0 1.910271002
0 0 2.445456506
0 0 2.906400866
0 0 3.31839434
0 0 3.694737551
0 0 4.044216985
0 0 4.373883832
0 0 4.690287993
0 0 5
0 0 5.309712007
0 0 5.626116168
0 0 5.955783015
0 0 6.305262449
0 0 6.68160566
0 0 7.093599134
0 0 7.554543494
0 0 8.089728998
0 0 8.765674992
0.3987024133 0 9.053158716
0.769270563 0 9.231699225
1.142235278 0 9.344950123
1.536861206 0 9.417084361
1.961543197 0 9.463238862
2.416090887 0 9.493373711
2.89634676 0 9.514030718
3.397813967 0 9.52947014
3.917635564 0 9.542660227
4.455591174 0 9.555998036
5.015173984 0 9.571971543
5.605894572 0 9.594213024
6.248996709 0 9.630999072
0.475085484 0 8.400827663
0.9105984472 0 8.618847638
1.333472527 0 8.769673023
1.762153445 0 8.873076596
2.206482334 0 8.943864938
2.669481662 0 8.99307921
3.150299493 0 9.028798985
3.646869967 0 9.056976547
4.15759774 0 9.082268063
4.682310575 0 9.108860064
5.222903616 0 9.141442913
5.783946456 0 9.186948311
6.372906698 0 9.258847822
0.5328960371 0 7.856516525
1.020253547 0 8.079256421
1.485598936 0 8.240413297
1.945407848 0 8.355680701
2.409511727 0 8.437998588
2.882423466 0 8.497725016
3.365289867 0 8.543014158
3.857694093 0 8.580359846
4.358907918 0 8.6152543
4.868596564 0 8.652935407
5.387105809 0 8.699350342
5.915322228 0 8.76265179
6.453735687 0 8.85572572
0.581484535 0 7.374230898
1.111283402 0 7.585581048
1.611442809 0 7.742108481
2.097272397 0 7.856984898
2.578400583 0 7.941406336
3.060082418 0 8.00463664
3.544625818 0 8.054283658
4.032645716 0 8.096712184
4.523953825 0 8.137551161
5.018056776 0 8.182285423
5.514301676 0 8.236966804
6.011681568 0 8.309089694
6.508245702 0 8.408530597
0.6234752084 0 6.932289326
1.188440529 0 7.122255866
1.716678925 0 7.264548775
2.223236226 0 7.370628223
2.717809804 0 7.450148043
3.206158114 0 7.511152674
3.691315175 0 7.560381403
4.174552649 0 7.603620375
4.656052899 0 7.646089233
5.135302752 0 7.692855126
5.611252542 0 7.749259407
6.08230368 0 7.821296358
6.546210821 0 7.915764083
0.6594747822 0 6.518232082
1.253187106 0 6.679360828
1.803514827 0 6.800591572
2.325903621 0 6.891817046
2.830409427 0 6.961149587
3.323249158 0 7.015297848
3.807974789 0 7.059910913
4.286317628 0 7.099886904
4.758766031 0 7.139660249
5.224934652 0 7.183467909
5.683789798 0 7.235571115
6.133808521 0 7.300372381
6.573161777 0 7.382320297
0.6891269257 0 6.123690834
1.305382481 0 6.250037836
1.872332107 0 6.345163002
2.406201507 0 6.417126933
2.917569388 0 6.472333727
3.413091341 0 6.516008042
3.896722823 0 6.552536957
4.370544028 0 6.585726575
4.835315426 0 6.619006794
5.29085974 0 6.655593415
5.736347176 0 6.698594061
6.170552392 0 6.751025139
6.592139713 0 6.815698952
0.7115223614 0 5.742383179
1.344050679 0 5.829317021
1.922548215 0 5.894702648
2.464105115 0 5.944309013
2.979826764 0 5.982593453
3.476744248 0 6.013143526
3.959119352 0 6.038955121
4.429292604 0 6.062619019
4.888248172 0 6.086453799
5.336016482 0 6.112598172
5.771996429 0 6.143059331
6.195252975 0 6.179705414
6.604819631 0 6.22419355
0.7255627369 0 5.369248773
1.367940044 0 5.413546308
1.953222347 0 5.446823544
2.499163005 0 5.472103911
3.017251553 0 5.491679888
3.514773602 0 5.507379029
3.99618637 0 5.520720419
4.463994945 0 5.533013379
4.919331653 0 5.545423254
5.362373753 0 5.559013566
5.792683296 0 5.574765098
6.209516844 0 5.593569332
6.612121206 0 5.616196807
0.7303571068 0 5
1.376033047 0 5
1.963550955 0 5
2.510911982 0 5
3.029745781 0 5
3.527428056 0 5
4.008483483 0 5
4.475473734 0 5
4.929582979 0 5
5.371040872 0 5
5.799467375 0 5
6.214184557 0 5
6.614507868 0 5
0.7255627369 0 4.630751227
1.367940044 0 4.586453692
1.953222347 0 4.553176456
2.499163005 0 4.527896089
3.017251553 0 4.508320112
3.514773602 0 4.492620971
3.99618637 0 4.479279581
4.463994945 0 4.466986621
4.919331653 0 4.454576746
5.362373753 0 4.440986434
5.792683296 0 4.425234902
6.209516844 0 4.406430668
6.612121206 0 4.383803193
0.7115223614 0 4.257616821
1.344050679 0 4.170682979
1.922548215 0 4.105297352
2.464105115 0 4.055690987
2.979826764 0 4.017406547
3.476744248 0 3.986856474
3.959119352 0 3.961044879
4.429292604 0 3.937380981
4.888248172 0 3.913546201
5.336016482 0 3.887401828
5.771996429 0 3.856940669
6.195252975 0 3.820294586
6.604819631 0 3.77580645
0.6891269257 0 3.876309166
1.305382481 0 3.749962164
1.872332107 0 3.654836998
2.406201507 0 3.582873067
2.917569388 0 3.527666273
3.413091341 0 3.483991958
3.896722823 0 3.447463043
4.370544028 0 3.414273425
4.835315426 0 3.380993206
5.29085974 0 3.344406585
5.736347176 0 3.301405939
6.170552392 0 3.248974861
6.592139713 0 3.184301048
0.6594747822 0 3.481767918
1.253187106 0 3.320639172
1.803514827 0 3.199408428
2.325903621 0 3.108182954
2.830409427 0 3.038850413
3.323249158 0 2.984702152
3.807974789 0 2.940089087
4.286317628 0 2.900113096
4.758766031 0 2.860339751
5.224934652 0 2.816532091
5.683789798 0 2.764428885
6.133808521 0 2.699627619
6.573161777 0 2.617679703
0.6234752084 0 3.067710674
1.188440529 0 2.877744134
1.716678925 0 2.735451225
2.223236226 0 2.629371777
2.717809804 0 2.549851957
3.206158114 0 2.488847326
3.691315175 0 2.439618597
4.174552649 0 2.396379625
4.656052899 0 2.353910767
5.135302752 0 2.307144874
5.611252542 0 2.250740593
6.08230368 0 2.178703642
6.546210821 0 2.084235917
0.581484535 0 2.625769102
1.111283402 0 2.414418952
1.611442809 0 2.257891519
2.097272397 0 2.143015102
2.578400583 0 2.058593664
3.060082418 0 1.99536336
3.544625818 0 1.945716342
4.032645716 0 1.903287816
4.523953825 0 1.862448839
5.018056776 0 1.817714577
5.514301676 0 1.763033196
6.011681568 0 1.690910306
6.508245702 0 1.591469403
0.5328960371 0 2.143483475
1.020253547 0 1.920743579
1.485598936 0 1.759586703
1.945407848 0 1.644319299
2.409511727 0 1.562001412
2.882423466 0 1.502274984
3.365289867 0 1.456985842
3.857694093 0 1.419640154
4.358907918 0 1.3847457
4.868596564 0 1.347064593
5.387105809 0 1.300649658
5.915322228 0 1.23734821
6.453735687 0 1.14427428
0.475085484 0 1.599172337
0.9105984472 0 1.381152362
1.333472527 0 1.230326977
1.762153445 0 1.126923404
2.206482334 0 1.056135062
2.669481662 0 1.00692079
3.150299493 0 0.9712010151
3.646869967 0 0.9430234527
4.15759774 0 0.9177319367
4.682310575 0 0.8911399359
5.222903616 0 0.8585570868
5.783946456 0 0.813051689
6.372906698 0 0.7411521784
0.3987024133 0 0.9468412844
0.769270563 0 0.7683007748
1.142235278 0 0.6550498769
1.536861206 0 0.5829156393
1.961543197 0 0.5367611379
2.416090887 0 0.5066262894
2.89634676 0 0.4859692823
3.397813967 0 0.4705298597
3.917635564 0 0.4573397732
4.455591174 0 0.4440019644
5.015173984 0 0.4280284572
5.605894572 0 0.4057869758
6.248996709 0 0.3690009278
CELLS 280 1400
4 314 34 15 36
4 313 314 36 37
4 312 313 37 38
4 311 312 38 39
4 310 311 39 40
4 309 310 40 41
4 308 309 41 42
4 307 308 42 43
4 306 307 43 44
4 305 306 44 45
4 304 305 45 46
4 303 304 46 47
4 302 303 47 48
4 49 302 48 35
4 301 33 34 314
4 300 301 314 313
4 299 300 313 312
4 298 299 312 311
4 297 298 311 310
4 296 297 310 309
4 295 296 309 308
4 294 295 308 307
4 293 294 307 306
4 292 293 306 305
4 291 292 305 304
4 290 291 304 303
4 289 290 303 302
4 50 289 302 49
4 288 32 33 301
4 287 288 301 300
4 286 287 300 299
4 285 286 299 298
4 284 285 298 297
4 283 284 297 296
4 282 283 296 295
4 281 282 295 294
4 280 281 294 293
4 279 280 293 292
4 278 279 292 291
4 277 278 291 290
4 276 277 290 289
4 51 276 289 50
4 275 31 32 288
4 274 275 288 287
4 273 274 287 286
4 272 273 286 285
4 271 272 285 284
4 270 271 284 283
4 269 270 283 282
4 268 269 282 281
4 267 268 281 280
4 266 267 280 279
4 265 266 279 278
4 264 265 278 277
4 263 264 277 276
4 52 263 276 51
4 262 30 31 275
4 261 262 275 274
4 260 261 274 273
4 259 260 273 272
4 258 259 272 271
4 257 258 271 270
4 256 257 270 269
4 255 256 269 268
4 254 255 268 267
4 253 254 267 266
4 252 253 266 265
4 251 252 265 264
4 250 251 264 263
4 53 250 263 52
4 249 29 30 262
4 248 249 262 261
4 247 248 261 260
4 246 247 260 259
4 245 246 259 258
4 244 245 258 257
4 243 244 257 256
4 242 243 256 255
4 241 242 255 254
4 240 241 254 253
4 239 240 253 252
4 238 239 252 251
4 237 238 251 250
4 54 237 250 53
4 236 28 29 249
4 235 236 249 248
4 234 235 248 247
4 233 234 247 246
4 232 233 246 245
4 231 232 245 244
4 230 231 244 243
4 229 230 243 242
4 228 229 242 241
4 227 228 241 240
4 226 227 240 239
4 225 226 239 238
4 224 225 238 237
4 55 224 237 54
4 223 27 28 236
4 222 223 236 235
4 221 222 235 234
4 220 221 234 233
4 219 220 233 232
4 218 219 232 231
4 217 218 231 230
4 216 217 230 229
4 215 216 229 228
4 214 215 228 227
4 213 214 227 226
4 212 213 226 225
4 211 212 225 224
4 56 211 224 55
4 210 26 27 223
4 209 210 223 222
4 208 209 222 221
4 207 208 221 220
4 206 207 220 219
4 205 206 219 218
4 204 205 218 217
4 203 204 217 216
4 202 203 216 215
4 201 202 215 214
4 200 201 214 213
4 199 200 213 212
4 198 199 212 211
4 57 198 211 56
4 197 25 26 210
4 196 197 210 209
4 195 196 209 208
4 194 195 208 207
4 193 194 207 206
4 192 193 206 205
4 191 192 205 204
4 190 191 204 203
4 189 190 203 202
4 188 189 202 201
4 187 188 201 200
4 186 187 200 199
4 185 186 199 198
4 58 185 198 57
4 184 24 25 197
4 183 184 197 196
4 182 183 196 195
4 181 182 195 194
4 180 181 194 193
4 179 180 193 192
4 178 179 192 191
4 177 178 191 190
4 176 177 190 189
4 175 176 189 188
4 174 175 188 187
4 173 174 187 186
4 172 173 186 185
4 59 172 185 58
4 171 23 24 184
4 170 171 184 183
4 169 170 183 182
4 168 169 182 181
4 167 168 181 180
4 166 167 180 179
4 165 166 179 178
4 164 165 178 177
4 163 164 177 176
4 162 163 176 175
4 161 162 175 174
4 160 161 174 173
4 159 160 173 172
4 60 159 172 59
4 158 22 23 171
4 157 158 171 170
4 156 157 170 169
4 155 156 169 168
4 154 155 168 167
4 153 154 167 166
4 152 153 166 165
4 151 152 165 164
4 150 151 164 163
4 149 150 163 162
4 148 149 162 161
4 147 148 161 160
4 146 147 160 159
4 61 146 159 60
4 145 21 22 158
4 144 145 158 157
4 143 144 157 156
4 142 143 156 155
4 141 142 155 154
4 140 141 154 153
4 139 140 153 152
4 138 139 152 151
4 137 138 151 150
4 136 137 150 149
4 135 136 149 148
4 134 135 148 147
4 133 134 147 146
4 62 133 146 61
4 132 20 21 145
4 131 132 145 144
4 130 131 144 143
4 129 130 143 142
4 128 129 142 141
4 127 128 141 140
4 126 127 140 139
4 125 126 139 138
4 124 125 138 137
4 123 124 137 136
4 122 123 136 135
4 121 122 135 134
4 120 121 134 133
4 63 120 133 62
4 119 19 20 132
4 118 119 132 131
4 117 118 131 130
4 116 117 130 129
4 115 116 129 128
4 114 115 128 127
4 113 114 127 126
4 112 113 126 125
4 111 112 125 124
4 110 111 124 123
4 109 110 123 122
4 108 109 122 121
4 107 108 121 120
4 64 107 120 63
4 106 18 19 119
4 105 106 119 118
4 104 105 118 117
4 103 104 117 116
4 102 103 116 115
4 101 102 115 114
4 100 101 114 113
4 99 100 113 112
4 98 99 112 111
4 97 98 111 110
4 96 97 110 109
4 95 96 109 108
4 94 95 108 107
4 65 94 107 64
4 93 17 18 106
4 92 93 106 105
4 91 92 105 104
4 90 91 104 103
4 89 90 103 102
4 88 89 102 101
4 87 88 101 100
4 86 87 100 99
4 85 86 99 98
4 84 85 98 97
4 83 84 97 96
4 82 83 96 95
4 81 82 95 94
4 66 81 94 65
4 80 16 17 93
4 79 80 93 92
4 78 79 92 91
4 77 78 91 90
4 76 77 90 89
4 75 76 89 88
4 74 75 88 87
4 73 74 87 86
4 72 73 86 85
4 71 72 85 84
4 70 71 84 83
4 69 70 83 82
4 68 69 82 81
4 67 68 81 66
4 14 1 16 80
4 13 14 80 79
4 12 13 79 78
4 11 12 78 77
4 10 11 77 76
4 9 10 76 75
4 8 9 75 74
4 7 8 74 73
4 6 7 73 72
4 5 6 72 71
4 4 5 71 70
4 3 4 70 69
4 2 3 69 68
4 0 2 68 67
CELL_TYPES 280
9
9
9
9
9
9
9
9
9
9
9
9
9
9
9
9
9
9
9
9
9
9
9
9
9
9
9
9
9
9
9
9
9
9
9
9
9
9
9
9
9
9
9
9
9
9
9
9
9
9
9
9
9
9
9
9
9
9
9
9
9
9
9
9
9
9
9
9
9
9
9
9
9
9
9
9
9
9
9
9
9
9
9
9
9
9
9
9
9
9
9
9
9
9
9
9
9
9
9
9
9
9
9
9
9
9
9
9
9
9
9
9
9
9
9
9
9
9
9
9
9
9
9
9
9
9
9
9
9
9
9
9
9
9
9
9
9
9
9
9
9
9
9
9
9
9
9
9
9
9
9
9
9
9
9
9
9
9
9
9
9
9
9
9
9
9
9
9
9
9
9
9
9
9
9
9
9
9
9
9
9
9
9
9
9
9
9
9
9
9
9
9
9
9
9
9
9
9
9
9
9
9
9
9
9
9
9
9
9
9
9
9
9
9
9
9
9
9
9
9
9
9
9
9
9
9
9
9
9
9
9
9
9
9
9
9
9
9
9
9
9
9
9
9
9
9
9
9
9
9
9
9
9
9
9
9
9
9
9
9
9
9
9
9
9
9
9
9
9
9
9
9
9
9
9
9
9
9
9
9
POINT_DATA 315
SCALARS fixed int
LOOKUP_TABLE default
0
0
0
0
0
0
0
0
0
0
0
0
0
0
0
0
0
0
0
0
0
0
0
0
0
0
0
0
0
0
0
0
0
0
0
0
0
0
0
0
0
0
0
0
0
0
0
0
0
0
0
0
0
0
0
0
0
0
0
0
0
0
0
0
0
0
0
0
0
0
0
0
0
0
0
0
0
0
0
0
0
0
0
0
0
0
0
0
0
0
0
0
0
0
0
0
0
0
0
0
0
0
0
0
0
0
0
0
0
0
0
0
0
0
0
0
0
0
0
0
0
0
0
0
0
0
0
0
0
0
0
0
0
0
0
0
0
0
0
0
0
0
0
0
0
0
0
0
0
0
0
0
0
0
0
0
0
0
0
0
0
0
0
0
0
0
0
0
0
0
0
0
0
0
0
0
0
0
0
0
0
0
0
0
0
0
0
0
0
0
0
0
0
0
0
0
0
0
0
0
0
0
0
0
0
0
0
0
0
0
0
0
0
0
0
0
0
0
0
0
0
0
0
0
0
0
0
0
0
0
0
0
0
0
0
0
0
0
0
0
0
0
0
0
0
0
0
0
0
0
0
0
0
0
0
0
0
0
0
0
0
0
0
0
0
0
0
0
0
0
0
0
0
0
0
0
0
0
0
0
0
0
0
0
0
0
0
0
0
0
0
0
0
0
0
0
0
0
0
0
0
0
0
0
0
0
0
0
0
0
0
0
0
0
0
SCALARS GLOBAL_ID int 1
LOOKUP_TABLE default
1
2
3
4
5
6
7
8
9
10
11
12
13
14
15
16
17
18
19
20
21
22
23
24
25
26
27
28
29
30
31
32
33
34
35
36
37
38
39
40
41
42
43
44
45
46
47
48
49
50
51
52
53
54
55
56
57
58
59
60
61
62
63
64
65
66
67
68
69
70
71
72
73
74
75
76
77
78
79
80
81
82
83
84
85
86
87
88
89
90
91
92
93
94
95
96
97
98
99
100
101
102
103
104
105
106
107
108
109
110
111
112
113
114
115
116
117
118
119
120
121
122
123
124
125
126
127
128
129
130
131
132
133
134
135
136
137
138
139
140
141
142
143
144
145
146
147
148
149
150
151
152
153
154
155
156
157
158
159
160
161
162
163
164
165
166
167
168
169
170
171
172
173
174
175
176
177
178
179
180
181
182
183
184
185
186
187
188
189
190
191
192
193
194
195
196
197
198
199
200
201
202
203
204
205
206
207
208
209
210
211
212
213
214
215
216
217
218
219
220
221
222
223
224
225
226
227
228
229
230
231
232
233
234
235
236
237
238
239
240
241
242
243
244
245
246
247
248
249
250
251
252
253
254
255
256
257
258
259
260
261
262
263
264
265
266
267
268
269
270
271
272
273
274
275
276
277
278
279
280
281
282
283
284
285
286
287
288
289
290
291
292
293
294
295
296
297
298
299
300
301
302
303
304
305
306
307
308
309
310
311
312
313
314
315
FIELD Vector 1
Field 3 315 double
0.5734623444 0 0.8192319205
0.8592928844 0 0.5114838598
0.6100935998 0 0.7923293504
0.6431920864 0 0.7657048648
0.6730408401 0 0.7396053188
0.6999285824 0 0.7142128391
0.724137931 0 0.6896551724
0.7459376616 0 0.6660157693
0.7655781126 0 0.6433429517
0.7832889031 0 0.6216578596
0.7992782688 0 0.6009611044
0.8137334712 0 0.5812381937
0.8268218719 0 0.5624638585
0.838692382 0 0.5446054429
0.8494770825 0 0.5276255171
0.8592928844 0 -0.5114838598
0.88147997 0 0.4722214125
0.9028605188 0 0.4299335804
0.9230769231 0 0.3846153846
0.9417419116 0 0.336336397
0.9584520784 0 0.2852535948
0.9728062147 0 0.2316205273
0.9844275755 0 0.1757906385
0.9929882742 0 0.1182128898
0.9982331517 0 0.05941863998
1 0 0
0.9982331517 0 -0.05941863998
0.9929882742 0 -0.1182128898
0.9844275755 0 -0.1757906385
0.9728062147 0 -0.2316205273
0.9584520784 0 -0.2852535948
0.9417419116 0 -0.336336397
0.9230769231 0 -0.3846153846
0.9028605188 0 -0.4299335804
0.88147997 0 -0.4722214125
0.5734623444 0 -0.8192319205
0.8494770825 0 -0.5276255171
0.838692382 0 -0.5446054429
0.8268218719 0 -0.5624638585
0.8137334712 0 -0.5812381937
0.7992782688 0 -0.6009611044
0.7832889031 0 -0.6216578596
0.7655781126 0 -0.6433429517
0.7459376616 0 -0.6660157693
0.724137931 0 -0.6896551724
0.6999285824 0 -0.7142128391
0.6730408401 0 -0.7396053188
0.6431920864 0 -0.7657048648
0.6100935998 0 -0.7923293504
0.6139406135 0 -0.7893522174
0.6585046079 0 -0.7525766947
0.7071067812 0 -0.7071067812
0.7592566024 0 -0.6507913735
0.8137334712 0 -0.5812381937
0.8682431421 0 -0.4961389384
0.91914503 0 -0.3939192986
0.9615239476 0 -0.2747211279
0.9899494937 0 -0.1414213562
1 0 0
0.9899494937 0 0.1414213562
0.9615239476 0 0.2747211279
0.91914503 0 0.3939192986
0.8682431421 0 0.4961389384
0.8137334712 0 0.5812381937
0.7592566024 0 0.6507913735
0.7071067812 0 0.7071067812
0.6585046079 0 0.7525766947
0.6139406135 0 0.7893522174
0.6500958109 0 0.7598522466
0.6823182504 0 0.7310552682
0.7110025972 0 0.7031893819
0.7365298884 0 0.6764049996
0.7592566024 0 0.6507913735
0.7795089348 0 0.6263911083
0.7975806821 0 0.6032122806
0.8137334712 0 0.5812381937
0.8281984052 0 0.560435011
0.8411784754 0 0.5407575913
0.8528513041 0 0.5221538596
0.8633719441 0 0.5045680193
0.8728755698 0 0.4879428651
0.6934685964 0 0.7204868534
0.724137931 0 0.6896551724
0.7510408734 0 0.6602557129
0.7746612001 0 0.6323764899
0.79543172 0 0.6060432153
0.8137334712 0 0.5812381937
0.8298982425 0 0.5579147849
0.8442128152 0 0.5360081367
0.856923899 0 0.5154429468
0.8682431421 0 0.4961389384
0.8783518755 0 0.4780146261
0.8874054193 0 0.4609898282
0.8955368919 0 0.4449872755
0.7399400734 0 0.672672794
0.7682212796 0 0.6401843997
0.7926239891 0 0.6097107608
0.8137334712 0 0.5812381937
0.8320502943 0 0.5547001962
0.847998304 0 0.52999894
0.8619342152 0 0.5070201266
0.8741572761 0 0.4856429312
0.8849182224 0 0.4657464328
0.894427191 0 0.4472135955
0.9028605188 0 0.4299335804
0.9103664775 0 0.4138029443
0.9170700563 0 0.3987261114
0.7888002902 0 0.6146495768
0.8137334712 0 0.5812381937
0.8348623853 0 0.5504587156
0.8528513041 0 0.5221538596
0.8682431421 0 0.4961389384
0.88147997 0 0.4722214125
0.8929214468 0 0.4502124942
0.9028605188 0 0.4299335804
0.9115363877 0 0.411219423
0.91914503 0 0.3939192986
0.9258476437 0 0.3778969974
0.931777392 0 0.3630301527
0.9370447756 0 0.3492092331
0.838692382 0 0.5446054429
0.8592928844 0 0.5114838598
0.8764191719 0 0.4815489956
0.8907618697 0 0.4544703417
0.9028605188 0 0.4299335804
0.9131378824 0 0.4076508404
0.9219267773 0 0.3873641921
0.9294907112 0 0.3688455203
0.9360396315 0 0.3518945983
0.9417419116 0 0.336336397
0.9467334813 0 0.3220181909
0.9511248019 0 0.3088067539
0.9550062168 0 0.2965857816
0.8874054193 0 0.4609898282
0.9028605188 0 0.4299335804
0.9154633087 0 0.4024014544
0.9258476437 0 0.3778969974
0.9344877349 0 0.3559953276
0.9417419116 0 0.336336397
0.9478837475 0 0.3186163857
0.9531242671 0 0.3025791324
0.9576278865 0 0.2880083869
0.9615239476 0 0.2747211279
0.9649151394 0 0.2625619427
0.9678837029 0 0.2513983644
0.9704960472 0 0.2411170304
0.931777392 0 0.3630301527
0.9417419116 0 0.336336397
0.9497217818 0 0.3130950929
0.9561999555 0 0.2927142721
0.9615239476 0 0.2747211279
0.9659480515 0 0.2587360852
0.9696612871 0 0.2444524253
0.9728062147 0 0.2316205273
0.9754918094 0 0.2200357465
0.9778024141 0 0.2095290887
0.9798040588 0 0.199960012
0.9815489871 0 0.1912108416
0.983078941 0 0.1831824114
0.9678837029 0 0.2513983644
0.9728062147 0 0.2316205273
0.9766894896 0 0.2146570307
0.9798040588 0 0.199960012
0.9823385664 0 0.1871121079
0.9844275755 0 0.1757906385
0.9861690318 0 0.1657426944
0.9876355285 0 0.1567675442
0.9888817491 0 0.1487040224
0.9899494937 0 0.1414213562
0.9908711404 0 0.1348124
0.9916720735 0 0.128788581
0.9923724145 0 0.1232760763
0.9916720735 0 0.128788581
0.9929882742 0 0.1182128898
0.994016222 0 0.1092325519
0.9948341425 0 0.101513688
0.9954954726 0 0.09480909263
0.9960377053 0 0.08893193797
0.9964877666 0 0.08373846778
0.9968653926 0 0.079116301
0.997185313 0 0.07497633933
0.9974586998 0 0.07124704999
0.9976941493 0 0.06787035029
0.9978983626 0 0.06479859497
0.9980766254 0 0.06199233698
1 0 0
1 0 0
1 0 0
1 0 0
1 0 0
1 0 0
1 0 0
1 0 0
1 0 0
1 0 0
1 0 0
1 0 0
1 0 0
0.9916720735 0 -0.128788581
0.9929882742 0 -0.1182128898
0.994016222 0 -0.1092325519
0.9948341425 0 -0.101513688
0.9954954726 0 -0.09480909263
0.9960377053 0 -0.08893193797
0.9964877666 0 -0.08373846778
0.9968653926 0 -0.079116301
0.997185313 0 -0.07497633933
0.9974586998 0 -0.07124704999
0.9976941493 0 -0.06787035029
0.9978983626 0 -0.06479859497
0.9980766254 0 -0.06199233698
0.9678837029 0 -0.2513983644
0.9728062147 0 -0.2316205273
0.9766894896 0 -0.2146570307
0.9798040588 0 -0.199960012
0.9823385664 0 -0.1871121079
0.9844275755 0 -0.1757906385
0.9861690318 0 -0.1657426944
0.9876355285 0 -0.1567675442
0.9888817491 0 -0.1487040224
0.9899494937 0 -0.1414213562
0.9908711404 0 -0.1348124
0.9916720735 0 -0.128788581
0.9923724145 0 -0.1232760763
0.931777392 0 -0.3630301527
0.9417419116 0 -0.336336397
0.9497217818 0 -0.3130950929
0.9561999555 0 -0.2927142721
0.9615239476 0 -0.2747211279
0.9659480515 0 -0.2587360852
0.9696612871 0 -0.2444524253
0.9728062147 0 -0.2316205273
0.9754918094 0 -0.2200357465
0.9778024141 0 -0.2095290887
0.9798040588 0 -0.199960012
0.9815489871 0 -0.1912108416
0.983078941 0 -0.1831824114
0.8874054193 0 -0.4609898282
0.9028605188 0 -0.4299335804
0.9154633087 0 -0.4024014544
0.9258476437 0 -0.3778969974
0.9344877349 0 -0.3559953276
0.9417419116 0 -0.336336397
0.9478837475 0 -0.3186163857
0.9531242671 0 -0.3025791324
0.9576278865 0 -0.2880083869
0.9615239476 0 -0.2747211279
0.9649151394 0 -0.2625619427
0.9678837029 0 -0.2513983644
0.9704960472 0 -0.2411170304
0.838692382 0 -0.5446054429
0.8592928844 0 -0.5114838598
0.8764191719 0 -0.4815489956
0.8907618697 0 -0.4544703417
0.9028605188 0 -0.4299335804
0.9131378824 0 -0.4076508404
0.9219267773 0 -0.3873641921
0.9294907112 0 -0.3688455203
0.9360396315 0 -0.3518945983
0.9417419116 0 -0.336336397
0.9467334813 0 -0.3220181909
0.9511248019 0 -0.3088067539
0.9550062168 0 -0.2965857816
0.7888002902 0 -0.6146495768
0.8137334712 0 -0.5812381937
0.8348623853 0 -0.5504587156
0.8528513041 0 -0.5221538596
0.8682431421 0 -0.4961389384
0.88147997 0 -0.4722214125
0.8929214468 0 -0.4502124942
0.9028605188 0 -0.4299335804
0.9115363877 0 -0.411219423
0.91914503 0 -0.3939192986
0.9258476437 0 -0.3778969974
0.931777392 0 -0.3630301527
0.9370447756 0 -0.3492092331
0.7399400734 0 -0.672672794
0.7682212796 0 -0.6401843997
0.7926239891 0 -0.6097107608
0.8137334712 0 -0.5812381937
0.8320502943 0 -0.5547001962
0.847998304 0 -0.52999894
0.8619342152 0 -0.5070201266
0.8741572761 0 -0.4856429312
0.8849182224 0 -0.4657464328
0.894427191 0 -0.4472135955
0.9028605188 0 -0.4299335804
0.9103664775 0 -0.4138029443
0.9170700563 0 -0.3987261114
0.6934685964 0 -0.7204868534
0.724137931 0 -0.6896551724
0.7510408734 0 -0.6602557129
0.7746612001 0 -0.6323764899
0.79543172 0 -0.6060432153
0.8137334712 0 -0.5812381937
0.8298982425 0 -0.5579147849
0.8442128152 0 -0.5360081367
0.856923899 0 -0.5154429468
0.8682431421 0 -0.4961389384
0.8783518755 0 -0.4780146261
0.8874054193 0 -0.4609898282
0.8955368919 0 -0.4449872755
0.6500958109 0 -0.7598522466
0.6823182504 0 -0.7310552682
0.7110025972 0 -0.7031893819
0.7365298884 0 -0.6764049996
0.7592566024 0 -0.6507913735
0.7795089348 0 -0.6263911083
0.7975806821 0 -0.6032122806
0.8137334712 0 -0.5812381937
0.8281984052 0 -0.560435011
0.8411784754 0 -0.5407575913
0.8528513041 0 -0.5221538596
0.8633719441 0 -0.5045680193
0.8728755698 0 -0.4879428651

CELL_DATA 280
FIELD Average 1
|T-I|^2 1 280 double
0.2331803131
0.2840442925
0.3212019572
0.355575375
0.3897315713
0.4241811568
0.458378464
0.4905325826
0.516983974
0.5315300571
0.5266646627
0.4996541355
0.4618407929
0.4354891841
0.1225748412
0.1861099226
0.2294318095
0.2643621628
0.2948562009
0.3216010521
0.3433610956
0.3568611413
0.3561426833
0.332384277
0.2771478095
0.1921640538
0.09922432455
0.02969176906
0.05751410693
0.1098175453
0.1518883479
0.1854148461
0.2126455363
0.2340925353
0.2486434383
0.2535815485
0.244661919
0.2172077043
0.1697322529
0.1097174314
0.05397702788
0.01734853594
0.02533663784
0.06043149697
0.094051592
0.1226496376
0.1457318077
0.1630007837
0.1734752947
0.175318443
0.1661263567
0.1440261908
0.1099696712
0.07008777526
0.0344795505
0.01121109981
0.01082630932
0.03172408335
0.0550759558
0.07664181655
0.09457698566
0.1079141094
0.1157092094
0.1167707025
0.1098521938
0.09436724006
0.07158231212
0.04554838559
0.02226889974
0.006764719134
0.004425519466
0.01594033958
0.0305181796
0.04502830972
0.0575969067
0.06710608739
0.07271162462
0.07362908855
0.06921703815
0.05935311213
0.0450057313
0.02862643546
0.01375305005
0.003659922495
0.001659320757
0.0075195785
0.01570959865
0.02436438246
0.03215266025
0.03819024004
0.04184286703
0.04261132453
0.04016001784
0.03448989488
0.02619496759
0.01663659247
0.007794759356
0.001729698015
0.0005402893476
0.003163534939
0.007128354226
0.0115062089
0.01556616732
0.01878499105
0.02078580203
0.02129248957
0.02013931218
0.01734069301
0.01319528234
0.008360654803
0.003813070171
0.000687957687
0.000138339913
0.001041503004
0.002488930236
0.004134322932
0.005691804009
0.006947185996
0.0077439323
0.007970272358
0.007562405345
0.006526855288
0.004974084624
0.003144289682
0.001401659748
0.0002086177294
2.060851835e-05
0.0001889277209
0.0004692632098
0.000793413129
0.001103956151
0.00135681504
0.001519400561
0.001568619707
0.001491532226
0.001289364215
0.0009835646253
0.0006206913037
0.0002724269114
3.518955938e-05
2.060851835e-05
0.0001889277209
0.0004692632098
0.000793413129
0.001103956151
0.00135681504
0.001519400561
0.001568619707
0.001491532226
0.001289364215
0.0009835646253
0.0006206913037
0.0002724269114
3.518955938e-05
0.000138339913
0.001041503004
0.002488930236
0.004134322932
0.005691804009
0.006947185996
0.0077439323
0.007970272358
0.007562405345
0.006526855288
0.004974084624
0.003144289682
0.001401659748
0.0002086177294
0.0005402893476
0.003163534939
0.007128354226
0.0115062089
0.01556616732
0.01878499105
0.02078580203
0.02129248957
0.02013931218
0.01734069301
0.01319528234
0.008360654803
0.003813070171
0.000687957687
0.001659320757
0.0075195785
0.01570959865
0.02436438246
0.03215266025
0.03819024004
0.04184286703
0.04261132453
0.04016001784
0.03448989488
0.02619496759
0.01663659247
0.007794759356
0.001729698015
0.004425519466
0.01594033958
0.0305181796
0.04502830972
0.0575969067
0.06710608739
0.07271162462
0.07362908855
0.06921703815
0.05935311213
0.0450057313
0.02862643546
0.01375305005
0.003659922495
0.01082630932
0.03172408335
0.0550759558
0.07664181655
0.09457698566
0.1079141094
0.1157092094
0.1167707025
0.1098521938
0.09436724006
0.07158231212
0.04554838559
0.02226889974
0.006764719134
0.02533663784
0.06043149697
0.094051592
0.1226496376
0.1457318077
0.1630007837
0.1734752947
0.175318443
0.1661263567
0.1440261908
0.1099696712
0.07008777526
0.0344795505
0.01121109981
0.05751410693
0.1098175453
0.1518883479
0.1854148461
0.2126455363
0.2340925353
0.2486434383
0.2535815485
0.244661919
0.2172077043
0.1697322529
0.1097174314
0.05397702788
0.01734853594
0.1225748412
0.1861099226
0.2294318095
0.2643621628
0.2948562009
0.3216010521
0.3433610956
0.3568611413
0.3561426833
0.332384277
0.2771478095
0.1921640538
0.09922432455
0.02969176906
0.2331803131
0.2840442925
0.3212019572
0.355575375
0.3897315713
0.4241811568
0.458378464
0.4905325826
0.516983974
0.5315300571
0.5266646627
0.4996541355
0.4618407929
0.4354891841
SCALARS GLOBAL_ID int 1
LOOKUP_TABLE default
280
279
278
277
276
275
274
273
272
271
270
269
268
267
266
265
264
263
262
261
260
259
258
257
256
255
254
253
252
251
250
249
248
247
246
245
244
243
242
241
240
239
238
237
236
235
234
233
232
231
230
229
228
227
226
225
224
223
222
221
220
219
218
217
216
215
214
213
212
211
210
209
208
207
206
205
204
203
202
201
200
199
198
197
196
195
194
193
192
191
190
189
188
187
186
185
184
183
182
181
180
179
178
177
176
175
174
173
172
171
170
169
168
167
166
165
164
163
162
161
160
159
158
157
156
155
154
153
152
151
150
149
148
147
146
145
144
143
142
141
140
139
138
137
136
135
134
133
132
131
130
129
128
127
126
125
124
123
122
121
120
119
118
117
116
115
114
113
112
111
110
109
108
107
106
105
104
103
102
101
100
99
98
97
96
95
94
93
92
91
90
89
88
87
86
85
84
83
82
81
80
79
78
77
76
75
74
73
72
71
70
69
68
67
66
65
64
63
62
61
60
59
58
57
56
55
54
53
52
51
50
49
48
47
46
45
44
43
42
41
40
39
38
37
36
35
34
33
32
31
30
29
28
27
26
25
24
23
22
21
20
19
18
17
16
15
14
13
12
11
10
9
8
7
6
5
4
3
2
1
SCALARS InverseMeanRatio double 1
LOOKUP_TABLE default
1.536435799
1.224546877
1.176625481
1.164174099
1.162596305
1.16481951
1.1682408
1.172413025
1.179517655
1.196969815
1.241715985
1.341740082
1.531889083
1.86194226
1.254847842
1.12585655
1.101974616
1.101068474
1.105154409
1.108604076
1.108945957
1.104837454
1.096063414
1.084640519
1.076505279
1.082236395
1.117283742
1.208027399
1.102956191
1.050360317
1.04448907
1.051449299
1.059970647
1.065743981
1.066707688
1.061682294
1.05045673
1.034868623
1.020625022
1.019279098
1.050107805
1.144771515
1.040758331
1.011984943
1.011134962
1.019723278
1.02935928
1.036237837
1.038455005
1.035040007
1.026048531
1.013507666
1.003134481
1.00659498
1.04431019
1.150330926
1.029890017
1.005142042
1.001027629
1.005889926
1.012993847
1.018708767
1.021087391
1.019214394
1.01327761
1.005350725
1.000946382
1.011440502
1.057824711
1.177399978
1.044227149
1.017621944
1.007295273
1.005833894
1.008035727
1.010622778
1.011671262
1.010280043
1.006675842
1.002889019
1.004196413
1.021718328
1.077150934
1.212076556
1.068283704
1.038469845
1.021885141
1.013804618
1.010385333
1.008887891
1.007570879
1.005609265
1.003268974
1.002542992
1.008552231
1.032331984
1.09651355
1.247719963
1.092724516
1.059838535
1.038138854
1.024465721
1.015988785
1.010512041
1.006561618
1.003450896
1.001517818
1.002760139
1.012240566
1.041060441
1.112903417
1.27966586
1.111794967
1.076601028
1.051366988
1.033757571
1.021575732
1.013034256
1.006901708
1.002634522
1.000653007
1.002987349
1.014704326
1.047034993
1.124598454
1.303868802
1.122116394
1.085697488
1.058669272
1.039045301
1.024925554
1.014735627
1.007383205
1.002412979
1.000299296
1.003100036
1.015899872
1.050025598
1.130651469
1.316966855