# vtk DataFile Version 3.0
MOAB 3.99 (Alpha)
ASCII
DATASET UNSTRUCTURED_GRID
POINTS 474 double
-2.049838665 0.5040809004 -5
1.077646494 -0.1485073119 -2.066816568
-0.4840938747 1.64448297 -3.108097553
-1.357245564 0.2856499851 -1.894129753
-0.4860960853 0.1777867942 -3.533408284
0.2967763096 0.7479878291 -2.587457061
-1.26696627 1.074281935 -4.054048777
-1.703542115 0.3948654427 -3.447064877
-0.1397995353 0.06857133657 -1.980473161
-0.9206697196 0.9650664777 -2.501113653
2.499981403 2.50001812 -1.667683363
0.09998312593 2.540846348 0.6264073849
1.788813949 1.175755404 -1.867249966
1.007943764 2.072250545 -2.387890458
-0.1920553744 2.092664659 -1.240845084
0.5888148099 1.196169518 -0.7202045918
1.299982265 2.520432234 -0.520637989
-1.081938405 -2.295188211 -5
-1.219591985 -1.004769113 -3.447064877
-1.565888535 -0.8955536555 -5
-0.002145955769 -1.221847762 -3.533408284
1.598666222 -0.2203075291 -5
0.5572861736 0.7120877206 -4.054048777
1.338156358 -0.1844074205 -3.533408284
2.049323813 1.139855295 -3.333841681
-0.892421484 0.3658461273 0.2948714495
-0.5829876661 0.2153934985 2.249358416
-1.40102303 2.708807468 2.572694778
-2.786488056 1.336814284 2.665586948
-0.7377045751 0.2906198129 1.272114933
-0.9920053482 1.462100483 2.411026597
-1.146722257 1.537326798 1.433783114
-1.83945477 0.8513302058 1.480229199
-1.684737861 0.7761038914 2.457472682
-2.093755543 2.022810876 2.619140863
0.2361692488 -2.477144718 0.7104056478
-2.538800478 -0.1886565983 0.7248150706
-0.5605381578 -1.095747367 -0.5918620527
-0.3281261176 -1.055649295 0.5026385486
-1.124833524 0.3257480562 -0.7996291518
-1.948023021 0.04849669337 -0.5846573412
-1.151315615 -1.332900658 0.7176103592
-1.715610981 0.08859476447 0.50984326
-0.02453932352 -1.162463427 2.632073402
1.272954583 0.01029368211 2.605829
-0.3037634948 -0.473534964 2.440715909
-0.4584804038 -0.3983086497 1.463472426
0.1902665496 0.1880699047 1.450350225
0.3449834585 0.1128435903 2.427593708
0.6242076298 -0.5760848722 2.618951201
-2.354064226 2.316259146 -0.8838664293
-2.662644267 0.574078843 1.69520101
-1.623242855 1.341052637 -0.2944974899
-2.446432352 1.063801274 -0.07952567935
-2.570276141 1.826536715 0.8908602595
-1.877543628 2.512533307 0.8444141746
-1.855654895 1.300954565 -1.388998091
0.6569078714 -1.312826015 -0.6782054603
0.09261250496 0.1086694077 -0.8859725595
2.683100462 0.1260239482 0.6456708908
0.6864688545 1.275570015 1.616118193
-0.396219179 1.453346238 0.4606394172
1.391541794 1.333435148 0.6360391378
1.978027523 0.06815881515 1.625749946
0.895339489 0.2459350377 0.4702711701
5 2.142945863 1.666669126
5 3.575700173e-05 -1.667683016
3.749990702 2.321481992 -0.0005071183596
3.749990702 1.250026938 -1.66768319
5 1.07149081 -0.0005069451062
3.841550231 1.134484906 1.156170009
2.591540933 1.313021034 -0.5110062361
3.841550231 0.0630298526 -0.5110060628
1.3778373 2.901141644 2.651685715
1.938909352 2.700579882 0.4920011759
0.7389102131 2.720993996 1.63904655
2.030468881 1.513582796 1.648678303
3.038823247 -0.07423577747 -1.867249792
3.299333111 -0.1101358861 -3.333841508
5 1.666666667 -5
5 5 -1.666666667
5 0.8333512118 -3.333841508
5 2.500017879 -1.667174842
5 3.333333333 -3.333333333
3.749990702 2.083342393 -3.333841681
3.749990702 3.75000906 -1.667175015
-0.09221724908 2.668472624 -5
-3.575700173e-05 5 -1.667683016
-0.04612650304 3.834236312 -3.333841508
-0.2420648158 3.322241485 -2.387890285
-0.2881555619 2.156477797 -4.054048777
1.203882077 2.584245372 -3.333841681
1.249972823 3.75000906 -1.66768319
-0.6286312193 1.413248166 -0.6338611841
-1.41907905 1.980371058 -1.995981991
-1.12704055 2.428552747 -0.1287295222
0.04997368446 3.770423174 -0.5206378158
-1.177049992 3.658129573 -1.275774723
-2.761744516 2.967844038 -5
-1.666666667 5 -5
-1.426980883 2.818158331 -5
-0.8794419579 3.834236312 -5
-2.214205591 3.983922019 -5
-1.622919195 2.306163504 -4.054048777
-1.075380271 3.322241485 -4.054048777
1.666666667 5 -5
3.333333333 5 -3.333333333
2.499982121 5 -1.667174842
0.8333154548 5 -3.333841508
2.083324035 3.75000906 -3.333841681
2.142731321 5 1.660566108
1.071347782 5 -0.003558454043
2.321356362 3.75000906 -0.003558627297
1.121357224 3.770423174 1.143486747
-2.142945863 5 1.666669126
-1.021481369 3.770423174 1.146538256
-0.6505199522 2.624826908 1.599551082
-1.771984447 3.854403734 2.119681952
-2.248505045 3.658129573 0.3914013485
0 5 5
0.06654287875 1.196795702 3.603723049
-0.7005115151 3.854403734 3.786347389
-0.01159286499 2.804974556 2.612190247
0.6889186502 3.950570822 3.825842857
0.03327143937 3.098397851 4.301861525
-0.6672400758 1.952801585 3.088208914
0.7221900895 2.048968673 3.127704382
-5 5 5
-5 2.142731321 1.660566108
-5 3.571365661 3.330283054
-3.571472932 3.571365661 1.663617617
-3.571472932 5 3.333334563
-3.200511515 3.854403734 3.786347389
-3.200511515 2.425769395 2.116630443
-5 5 -1.666666667
-0.8333512118 5 -3.333841508
-2.500017879 5 -1.667174842
-3.333333333 5 -3.333333333
-2.010365446 3.658129573 -2.941933215
-3.677032113 3.658129573 -1.275266548
-2.5 5 5
-1.071472932 5 3.333334563
-5 -2.142945863 1.666669126
-3.893244028 1.739772803 2.163076528
-3.893244028 -0.4030657895 2.166128037
-5 -0.0001072710052 1.663617617
-3.769400239 0.9770373614 1.192690589
-3.769400239 -1.165801231 1.195742098
-2.848511934 -1.170179605 2.915295601
-1.328007579 -2.905077934 2.714885473
-2.693656206 -0.6794181019 1.820055336
-3.924255967 -1.656562734 2.290982364
-3.164003789 -2.524011899 2.1907773
-1.933404028 -1.546867266 1.719850272
-2.088259757 -2.03762877 2.815090537
-1.436199427 0.3189207911 3.548270464
-2.817499995 0.08331733942 2.790441275
-1.7157498 -0.4773930535 2.582327008
-1.009593546 0.2671571448 2.89881444
-2.111343741 0.8278675377 3.106928706
-2.14235568 -0.4256294072 3.231783032
2.220446049e-16 5 -5
0.7872247088 3.834236312 -5
-5 -3.575700173e-05 -1.667683016
-3.769400239 -0.09434617767 -0.4714339729
-5 1.071347782 -0.003558454043
-3.677032113 2.229495233 0.3883498395
-3.677032113 1.158111694 -1.275774723
2.634623128 2.822966352 -5
3.817311564 2.24481651 -5
3.817311564 3.911483176 -3.333333333
2.567302266 2.661492236 -3.333841681
-5 1.666666667 -5
-5 5 -5
-3.880872258 2.317255352 -5
-3.880872258 3.983922019 -5
-5 3.333333333 -5
-5 3.333333333 -3.333333333
-3.880872258 3.983922019 -3.333333333
-5 5 -3.333333333
-5 5 1.666666667
-5 5 -2.220446049e-16
-5 3.571365661 1.663616388
-5 3.571365661 -0.00305027915
-3.571472932 5 1.229787468e-06
-3.571472932 5 1.666667896
-2.557904371 2.642051592 -2.941933215
-1.07149081 5 -0.0005069451062
-2.499982119 -2.50001812 -1.667683363
-2.519391298 -1.344337359 -0.4714341462
-1.913994849 -2.702548027 0.5236010551
-1.131906435 -2.488581419 -0.4786388576
-0.545919165 -2.691111326 1.712645561
-5 -5 1.666666667
-2.142731321 -5 1.660566108
-5 -5 5
-5 -3.571472932 1.666667896
-3.571365661 -5 1.663616388
-3.571365661 -3.571472932 1.663617617
-5 -3.571472932 3.333334563
-5 -5 3.333333333
-3.571365661 -5 3.330283054
0 -5 5
2.142945863 -5 1.666669126
2.138940096 -2.612380505 3.350691557
1.071472932 -5 3.333334563
0.4074691422 -3.952538967 2.1907773
-0.6640037894 -3.952538967 3.857442737
1.069470048 -3.806190252 4.175345778
2.14094298 -3.806190252 2.508680342
0.4054662585 -2.758729219 3.032788515
-1.224646799e-16 -1 5
2.13619109 -1.431078023 5
-0.01226966176 -1.081231713 3.816036701
1.055825883 -1.296770725 3.816036701
1.068095545 -1.215539012 5
-0.6640037894 -1.952538967 3.857442737
-0.6762734512 -2.03377068 2.673479438
0.4040917555 -2.168077979 3.857442737
1.068095545 -3.215539012 5
-6.123233996e-17 -3 5
-1.071365661 -5 3.330283054
-2.5 -5 5
-1.73536945 -3.952538967 2.187725791
-3.164003789 -3.952538967 3.857442737
-1.446356298 1.616132146 5
-2.051267203 -1.474280987 5
-5 0 5
-1.74881175 0.07092557922 5
-3.525633601 -0.7371404937 5
-3.223178149 0.8080660729 5
-1.441277863 0.9675264685 4.274135232
-1.743733315 -0.5776800981 4.274135232
-3.218099713 0.1594603956 4.274135232
-7.401703951e-17 2.46723465e-17 4
1.068095545 -0.7155390116 4.5
-0.01226966176 -0.5812317133 3.316036701
0.6364772916 0.005146841053 3.3029145
1.704572837 -0.7103921706 3.8029145
-0.8660254038 0.5 5
-1.156190851 1.058066073 5
-0.6899067098 1.406463924 4.301861525
-0.3997412625 0.848397851 4.301861525
-1.151112415 0.4094603956 4.274135232
-0.684828274 0.7578582466 3.575996757
-1.436525629 -1.166321516 2.773684502
-0.7303693751 -0.4217713177 3.090171933
3.217792749 -1.352333188 2.424418211
2.67699192 -1.391705606 3.712209105
1.596626713 -1.257398307 2.528245807
2.245373666 -0.671019753 2.515123606
5 -2.142731321 1.660566108
2.502142429 -2.501737118 -1.859215856
2.680369306 -3.176166594 2.045543669
4.108896375 -1.747532255 2.04249216
3.571472932 -3.571365661 1.663617617
2.322544146 -3.750868559 -0.09627336468
2.859967589 -1.927035153 0.2826011777
3.751071215 -2.322234219 -0.09932487362
1.189557556 -3.738572359 1.188537387
1.726980999 -1.914738953 1.567411929
1.369155839 -2.489440918 -0.5744051039
2.840325356 1.166736603 2.858406544
2.950446606 -0.6131546199 1.535044551
4.108896375 0.3953063376 2.045543669
3.920162678 1.654841233 2.262537835
2.761712909 0.6463802755 1.752038717
3.029059052 -0.09279829264 2.641412377
5 0 5
5 1.071472932 3.333334563
4.108896375 -0.676166594 3.712209105
3.920162678 0.5833683014 3.929203272
5 -5 5
3.571472932 -5 3.333334563
3.569470048 -3.806190252 4.175345778
4.108896375 -3.176166594 3.712209105
2.678366423 -1.982356846 2.887554884
5 -5 1.666666667
5 -5 3.333333333
3.571472932 -5 1.666667896
5 -3.571365661 3.330283054
5 -3.571365661 1.663616388
3.568095545 -0.7155390116 5
5 -2.5 5
3.568095545 -3.215539012 5
-2.32135672 -3.75000906 -0.003558627297
-0.9532810362 -3.738572359 1.185485878
1.325395942 1.455717663 2.628757358
0.669748731 0.603544692 3.104776025
2.056639969 0.5885151424 2.732117772
2.109081328 2.033939123 2.755046129
1.453434117 1.181766152 3.231064796
-3.749991059 -2.321481992 -0.0005071183596
-5 -1.071472932 3.333334563
-5 -2.5 5
-3.924255967 -3.085089803 3.9576478
-3.924255967 -0.5850898027 3.9576478
-2.449889568 -1.322230296 3.9576478
-0.2914938331 0.1076967493 3.124679208
-0.7180997133 0.1594603956 3.774135232
-3.893244028 0.6684071422 3.832793474
1.329280569 -0.5182197392 1.638872147
0.08326300234 1.868821025 2.115065217
1.459634855 -1.175560385 0.6780382693
0.1058149626 -1.819804072 1.671239525
0.03327143937 0.598397851 3.801861525
-0.2582223937 0.7060946003 2.926540732
1.666666667 -5 -5
5 -5 -5
5 -1.666666667 -5
3.333333333 -5 -5
5 -3.333333333 -5
3.333333333 -3.333333333 -5
2.084404548 -3.750868559 -3.429607928
3.751071215 -3.750868559 -3.429607928
3.751071215 -2.084201892 -3.429607928
5 -5 -1.666666667
5 -5 -3.333333333
5 -3.333333333 -3.333333333
3.751071215 -3.750868559 -1.762941261
1.187554672 -2.544762611 2.030548602
3.751071215 -3.750868559 -0.09627459447
5 -5 -2.220446049e-16
5 -3.571365661 -0.00305027915
3.575700173e-05 -5 -1.667683016
0.5388411255 -2.574253656 -1.867249792
-0.5409513242 -3.647594106 -3.333841508
0.710102012 -2.398462665 -3.429607928
1.789894462 -1.325122215 -1.963016212
1.251089093 -3.750868559 -1.763449436
0.1181025029 -3.738572359 -0.4786386843
-0.7111678123 -1.324262716 -1.867249966
-1.249973181 -3.75000906 -1.66768319
1.07149081 -5 -0.0005069451062
1.926773114 1.787206009 5
0.9633865568 3.393603004 5
1.652305207 2.344173826 3.825842857
0.9966579962 1.492000855 4.301861525
2.383549235 1.476971306 3.929203272
-1.418611228 1.51386413 3.060482621
-0.2415022701 1.378119923 1.4378829
-0.6123724357 0.3535533906 4.292893219
0.8660254038 0.5 5
-2.220446049e-16 1 5
-0.2901654473 1.058066073 5
0.4662841413 0.848397851 4.301861525
-2.116422177 1.476473215 3.832793474
-1.423689664 2.162469807 3.786347389
-0.0001072710052 5 1.663617617
1.760284311 3.950570822 2.156125912
-0.3825542815 3.950570822 2.15917742
-1.666666667 -5 -5
-1.374302536 -3.647594106 -5
-0.8333154548 -5 -3.333841508
-1.790960262 -2.397603166 -3.333841681
-2.083324393 -3.75000906 -3.333841681
2.592621446 -1.187856585 -0.6067724824
5 5 5
1.071365661 5 3.330283054
3.571365661 5 3.330283054
2.5 5 5
3.18891865 3.950570822 3.825842857
1.057200386 -1.887421966 2.99138248
0.0001072710052 -5 1.663617617
-1.025633601 -1.237140494 5
-1.037903263 -1.318372207 3.816036701
-1.689637391 -2.189679461 3.857442737
2.137565593 -2.021729264 4.175345778
2.5 -5 5
-1.560894072 0.01336845011 1.487086743
-1.281669901 -0.6755600125 1.678444237
-5 -5 -1.666666667
-5 -5 -2.220446049e-16
-5 -3.571472932 1.229787468e-06
-3.749991059 -3.75000906 -0.0005083481471
-3.749991059 -3.75000906 -1.667175015
3.463386557 3.393603004 5
5 2.5 5
3.463386557 0.8936030043 5
3.920162678 3.083368301 3.929203272
-3.893244028 3.168407142 3.832793474
-5 2.5 5
-5 1.071365661 3.330283054
1.880373478 -0.01124168187 -0.7105728388
4.108896375 -0.6761487155 0.3783675973
3.751071215 -1.25085068 -1.763449436
-1.458646303 -0.4871404937 5
1.396399259 1.143603004 5
2.031482102 0.1780639927 5
1.501108247 -0.4655390116 5
1.85317538 0.8333683014 3.929203272
2.488258223 -0.1321707102 3.929203272
0.2583639083 -1.25774787 -5
-0.2255862213 0.1418866856 -5
-3.677032113 1.991462906 -2.941933215
-3.524919332 1.085373784 -5
-5 0.8333154548 -3.333841508
-3.524919332 0.2520225717 -3.333841508
-2.201951445 1.410170023 -2.941933215
5 0.0001072710052 1.663617617
5 -1.071365661 3.330283054
-2.274910392 -0.9979686097 -3.333841681
-1.928613842 -1.107184067 -1.780906558
-3.178622782 0.142807114 -1.780906385
3.18891865 2.522043753 2.15917742
0.2402084076 1.701669077 5
-3.223178149 3.308066073 5
5 5 1.666666667
3.749990702 3.75000906 -0.0005083481471
3.571365661 5 1.663616388
3.18891865 3.950570822 2.159176191
5 3.571472932 3.333334563
5 3.571472932 1.666667896
-5 -1.666666667 -5
-3.524919332 -0.5812928831 -5
-5 -0.8333512118 -3.333841508
-3.749991059 -2.083342393 -3.333841681
-3.749991059 -1.250026938 -1.66768319
-1.071347782 -5 -0.003558454043
-3.333333333 -5 -3.333333333
-2.499982121 -5 -1.667174842
2.050404326 -1.361022323 -3.429607928
0.8333512118 -5 -3.333841508
0.2923641306 -3.647594106 -5
5 -2.499982121 -1.667174842
5 -0.8333154548 -3.333841508
5 3.571472932 1.229787468e-06
5 5 -2.220446049e-16
1.271202939 2.745719488 -5
2.150644897 3.911483176 -5
-3.333333333 -3.333333333 -5
-3.040969203 -1.980927439 -5
-5 -1.07149081 -0.0005069451062
-5 -5 -5
-5 -3.333333333 -3.333333333
-5 -5 -3.333333333
-5 -3.333333333 -5
-3.749991059 -3.75000906 -3.333841681
1.069489993 0.2551468411 3.8029145
-3.333333333 -5 -5
5 -1.071347782 -0.003558454043
3.571365661 5 -0.00305027915
5 5 3.333333333
-5 2.499982121 -1.667174842
-3.525633601 -3.237140494 5
-5 -2.500017879 -1.667174842
3.571472932 -5 1.229787468e-06
-3.571365661 -5 -0.00305027915
1.632666444 -2.610153765 -5
3.299333111 0.7231795688 -5
2.116644675 1.301329412 -5
5 5 -5
3.817311564 3.911483176 -5
5 3.333333333 -5
5 5 -3.333333333
0.7532244864 1.224082548 -5
-0.8660254038 -0.5 5
-1.389335562e-16 -0.7071067812 4.292893219
-1.025633601 -0.7371404937 4.5
-2.40579159 1.735962469 -5
0.6123724357 0.3535533906 4.292893219
-1.071027957 1.586276762 -5
-2.220446049e-16 -5 -5
3.333333333 -5 -3.333333333
2.500017879 -5 -1.667174842
3.299333111 -0.9434870979 -5
-1.025633601 -3.237140494 5
-0.7231781492 3.308066073 5
0.8660254038 -0.5 5
-5 5 3.333333333
-5 2.220446049e-16 -5
-3.333333333 5 -5
5 -2.220446049e-16 -5
3.333333333 5 -5
CELLS 265 2915
10 0 1 2 3 4 5 6 7 8 9
10 2 1 10 11 5 12 13 14 15 16
10 3 17 0 1 18 19 7 8 20 4
10 21 2 1 10 22 5 23 24 13 12
10 25 26 27 28 29 30 31 32 33 34
10 3 35 25 36 37 38 39 40 41 42
10 25 26 43 44 29 45 46 47 48 49
10 25 36 28 50 42 51 32 52 53 54
10 25 28 27 50 32 34 31 52 54 55
10 3 36 25 50 40 42 39 56 53 52
10 1 35 25 3 57 38 58 8 37 39
10 11 44 25 59 60 47 61 62 63 64
10 65 10 66 59 67 68 69 70 71 72
10 10 11 59 73 16 62 71 74 75 76
10 21 1 66 10 23 77 78 24 12 68
10 79 66 80 10 81 82 83 84 68 85
10 86 87 2 10 88 89 90 91 92 13
10 2 3 11 50 9 93 14 94 56 95
10 87 2 11 50 89 14 96 97 94 95
10 98 86 99 2 100 101 102 103 90 104
10 105 80 87 10 106 107 108 109 85 92
10 110 87 10 11 111 92 112 113 96 16
10 114 11 27 50 115 116 117 118 95 55
10 11 25 27 50 61 31 116 95 52 55
10 119 27 73 120 121 122 123 124 125 126
10 127 128 114 27 129 130 131 132 133 117
10 99 87 134 50 135 136 137 138 97 139
10 119 127 114 27 140 131 141 121 132 117
10 3 25 11 50 39 61 93 56 52 95
10 128 28 142 36 143 144 145 146 51 147
10 142 36 148 149 147 150 151 152 153 154
10 26 28 148 155 33 156 157 158 159 160
10 105 99 86 87 161 101 162 108 135 88
10 128 36 163 50 146 164 165 166 53 167
10 99 2 87 50 104 89 135 138 94 97
10 168 79 80 10 169 83 170 171 84 85
10 172 98 173 134 174 175 176 177 178 179
10 134 180 128 114 181 182 183 184 185 130
10 99 86 87 2 101 88 135 104 90 89
10 98 99 134 50 102 137 178 186 138 139
10 87 11 114 50 96 115 187 97 95 118
10 188 36 149 35 189 153 190 191 41 192
10 142 193 194 195 196 197 198 199 200 201
10 202 203 149 204 205 206 207 208 209 210
10 211 43 212 149 213 214 215 216 217 218
10 211 212 202 149 215 219 220 216 218 207
10 202 194 195 149 221 201 222 207 223 224
10 225 226 227 155 228 229 230 231 232 233
10 234 212 43 44 235 214 236 237 238 49
10 239 225 120 155 240 241 242 243 231 244
10 26 148 43 155 157 245 45 158 160 246
10 212 43 44 247 214 49 238 248 249 250
10 203 247 251 252 253 254 255 256 257 258
10 203 35 247 252 259 260 253 256 261 257
10 65 59 247 262 70 263 264 265 266 267
10 268 65 247 262 269 264 270 271 265 267
10 272 203 204 247 273 209 274 275 253 276
10 272 277 203 251 278 279 273 280 281 255
10 212 268 272 247 282 283 284 248 270 275
10 194 188 149 35 285 190 223 286 191 192
10 44 73 120 262 287 126 288 289 290 291
10 194 142 149 188 198 152 223 285 292 190
10 195 142 227 148 199 293 294 295 151 296
10 226 148 227 155 297 296 229 232 160 233
10 234 26 43 155 298 45 236 299 158 246
10 227 142 28 148 293 144 300 296 151 156
10 11 44 59 73 60 63 62 75 287 76
10 43 59 44 247 301 63 49 249 263 250
10 11 44 73 120 60 287 75 302 288 126
10 25 59 43 35 64 301 46 38 303 304
10 234 44 26 120 237 48 298 305 288 306
10 307 308 309 252 310 311 312 313 314 315
10 309 308 316 252 311 317 318 315 314 319
10 203 35 204 247 259 320 209 253 260 276
10 203 251 277 252 255 281 279 256 258 321
10 316 277 251 252 322 281 323 319 321 258
10 17 1 324 252 20 325 326 327 328 329
10 324 1 35 252 325 57 330 329 328 261
10 324 1 188 35 325 331 332 330 57 191
10 203 324 35 252 333 330 259 256 329 261
10 334 119 73 120 335 123 336 337 124 126
10 334 120 73 262 337 126 336 338 291 290
10 25 44 43 59 47 49 46 64 63 301
10 234 43 26 44 236 45 298 237 49 48
10 26 27 28 155 30 34 33 158 339 159
10 11 26 44 120 340 48 60 302 306 288
10 234 239 120 155 341 242 305 299 243 244
10 342 239 225 120 343 240 344 345 242 241
10 225 28 27 155 346 34 347 231 159 339
10 110 114 11 73 348 115 113 349 350 75
10 11 26 25 44 340 29 61 60 48 47
10 17 351 324 188 352 353 326 354 355 332
10 59 247 35 252 263 260 303 356 257 261
10 119 110 357 73 358 359 360 123 349 361
10 272 251 203 247 280 255 273 275 254 253
10 43 149 35 204 217 192 304 362 210 320
10 194 149 203 35 223 206 363 286 192 259
10 211 226 43 149 364 365 213 216 366 217
10 195 142 148 149 199 151 295 224 152 154
10 212 149 43 204 218 217 214 367 210 362
10 202 272 203 204 368 273 205 208 274 209
10 226 43 148 155 365 245 297 232 246 160
10 142 36 28 148 147 51 144 151 150 156
10 26 36 43 148 369 370 45 157 150 245
10 193 371 142 188 372 373 196 374 375 292
10 334 357 268 262 376 377 378 338 379 271
10 127 128 27 28 129 133 132 380 143 34
10 25 26 36 43 29 369 42 46 45 370
10 26 120 27 155 306 125 30 158 244 339
10 11 73 27 120 75 122 116 302 126 125
10 26 28 36 148 33 51 369 157 156 150
10 127 227 128 28 381 382 129 380 300 143
10 43 204 35 247 362 320 304 249 276 260
10 234 120 26 155 305 306 298 299 244 158
10 1 59 35 252 383 303 57 328 356 261
10 247 66 59 65 384 72 263 264 69 70
10 66 59 1 252 72 383 77 385 356 328
10 239 226 225 155 386 228 240 243 232 231
10 11 27 26 120 116 30 340 302 125 306
10 25 43 36 35 46 370 42 38 304 41
10 342 334 212 262 387 388 389 390 338 391
10 114 27 11 73 117 116 115 350 122 75
10 44 59 73 262 63 76 287 289 266 290
10 225 27 120 155 347 125 241 231 339 244
10 128 28 36 50 143 51 146 166 54 53
10 1 17 0 21 20 19 4 23 392 393
10 2 3 1 11 9 8 5 14 93 15
10 87 2 10 11 89 13 92 96 14 16
10 172 98 134 50 174 178 177 394 186 139
10 0 172 163 50 395 396 397 398 394 167
10 212 272 202 204 284 368 219 367 274 208
10 268 65 251 247 269 399 400 270 264 254
10 0 17 3 188 19 18 7 401 354 402
10 36 188 3 35 189 402 40 41 191 37
10 128 27 28 50 133 34 143 166 55 54
10 0 163 3 50 397 403 7 398 167 56
10 11 25 26 27 61 29 340 116 31 30
10 212 247 44 262 248 250 238 391 267 289
10 65 10 59 73 67 71 70 404 74 76
10 134 87 114 50 136 187 184 139 97 118
10 342 225 334 120 344 405 387 345 241 337
10 225 227 127 28 230 381 406 346 300 380
10 110 10 407 73 112 408 409 349 74 410
10 1 11 25 59 15 61 58 383 62 64
10 195 142 149 194 199 152 224 201 198 223
10 110 11 10 73 113 16 112 349 75 74
10 1 59 25 35 383 64 58 57 303 38
10 357 73 65 262 361 404 411 379 290 265
10 407 10 65 73 408 67 412 410 74 404
10 268 357 65 262 377 411 269 271 379 265
10 342 120 334 262 345 337 387 390 291 338
10 128 114 27 50 130 117 133 166 118 55
10 413 0 163 188 414 397 415 416 401 417
10 194 324 188 35 418 332 285 286 330 191
10 43 35 59 247 304 303 301 249 260 263
10 17 1 3 188 20 8 18 354 331 402
10 351 371 324 188 419 420 353 355 375 332
10 226 148 43 149 297 245 365 366 154 217
10 17 21 1 252 392 23 20 327 421 328
10 17 324 307 252 326 422 423 327 329 313
10 309 316 66 252 318 424 425 315 319 385
10 80 65 407 10 426 412 427 85 67 408
10 105 86 168 10 162 428 429 109 91 171
10 44 247 59 262 250 263 63 289 267 266
10 413 351 17 188 430 352 431 416 355 354
10 163 142 188 36 432 292 417 164 147 189
10 413 371 433 188 434 435 436 416 375 437
10 203 35 149 204 259 192 206 209 320 210
10 342 44 120 262 438 288 345 390 289 291
10 351 433 371 188 439 435 419 355 437 375
10 252 66 59 247 385 72 356 257 384 263
10 316 251 66 252 323 440 424 319 258 385
10 227 148 28 155 296 156 300 233 160 159
10 163 188 3 36 417 402 403 164 189 40
10 65 73 59 262 404 76 70 265 290 266
10 110 114 87 11 348 187 111 113 115 96
10 35 188 3 1 191 402 37 57 331 8
10 36 43 149 35 370 217 153 41 304 192
10 80 66 65 10 82 69 426 85 68 67
10 17 324 1 188 326 325 20 354 332 331
10 0 3 163 188 7 403 397 401 402 417
10 80 407 110 10 427 409 441 85 408 112
10 357 407 65 73 442 412 411 361 410 404
10 134 114 128 50 184 130 183 139 118 166
10 134 128 163 50 183 165 443 139 166 167
10 105 168 80 10 429 170 106 109 171 85
10 212 334 268 262 388 378 282 391 338 271
10 36 43 148 149 370 245 150 153 217 154
10 212 202 149 204 219 207 218 367 208 210
10 226 195 148 149 444 295 297 366 224 154
10 119 27 114 73 121 117 141 123 122 350
10 225 127 27 28 406 132 347 346 380 34
10 25 26 28 36 29 33 32 42 369 51
10 119 114 110 73 141 348 358 123 350 349
10 227 142 128 28 293 145 382 300 144 143
10 225 227 28 155 230 300 346 231 233 159
10 188 193 194 142 374 197 285 292 196 198
10 413 163 371 188 415 445 434 416 417 375
10 202 203 194 149 205 363 221 207 206 223
10 212 272 204 247 284 274 367 248 275 276
10 357 110 407 73 359 409 442 361 349 410
10 21 66 1 252 78 77 23 421 385 328
10 212 268 247 262 282 270 248 391 271 267
10 203 277 316 252 279 322 446 256 321 319
10 194 203 324 35 363 333 418 286 259 330
10 194 371 193 188 447 372 197 285 375 374
10 66 10 1 59 68 12 77 72 71 383
10 142 188 36 149 292 189 147 152 190 153
10 17 307 21 252 423 448 392 327 313 421
10 342 212 44 262 389 238 438 390 391 289
10 21 79 168 10 449 169 450 24 84 171
10 451 168 79 80 452 169 453 454 170 83
10 98 2 99 50 103 104 102 186 94 138
10 66 251 247 252 440 254 384 385 258 257
10 21 86 2 10 455 90 22 24 91 13
10 211 239 234 226 456 341 457 364 386 458
10 0 3 2 50 7 9 6 398 56 94
10 0 2 98 50 6 103 459 398 94 186
10 342 44 234 120 438 237 460 345 288 305
10 0 21 86 2 393 455 461 6 22 90
10 194 324 371 188 418 420 447 285 332 375
10 17 351 307 324 352 462 423 326 353 422
10 413 433 351 188 436 439 430 416 437 355
10 307 316 308 252 463 317 310 313 319 314
10 307 324 316 252 422 464 463 313 329 319
10 0 86 98 2 461 100 459 6 90 103
10 65 251 247 66 399 254 264 69 440 384
10 307 309 21 252 312 465 448 313 315 421
10 234 43 226 155 236 365 458 299 246 232
10 334 73 357 262 336 361 376 338 290 379
10 226 195 227 148 444 294 229 297 295 296
10 413 17 0 188 431 19 414 416 354 401
10 226 202 195 149 466 222 444 366 207 224
10 225 119 334 120 467 335 405 241 124 337
10 163 36 3 50 164 40 403 167 53 56
10 80 110 87 10 441 111 107 85 112 92
10 211 226 234 43 364 458 457 213 365 236
10 128 142 163 36 145 432 165 146 147 164
10 342 234 239 120 460 341 343 345 305 242
10 234 226 239 155 458 386 341 299 232 243
10 211 202 226 149 220 466 364 216 207 366
10 211 234 212 43 457 235 215 213 236 214
10 211 234 342 212 457 460 468 215 235 389
10 225 27 119 120 347 121 467 241 125 124
10 334 119 357 73 335 360 376 336 123 361
10 21 309 66 252 465 425 78 421 315 385
10 0 98 172 50 459 174 395 398 186 394
10 127 128 180 114 129 182 469 131 130 185
10 3 1 11 25 8 15 93 39 58 61
10 413 0 172 163 414 395 470 415 397 396
10 172 134 163 50 177 443 396 394 139 167
10 1 10 11 59 12 16 15 383 71 62
10 21 168 86 10 450 428 455 24 171 91
10 21 1 2 0 23 5 22 393 4 6
10 98 99 173 134 102 471 175 178 137 179
10 21 309 79 66 465 472 449 78 425 81
10 272 268 251 247 283 400 280 275 270 254
10 371 163 142 188 445 432 373 375 417 292
10 225 127 119 27 406 140 467 347 132 121
10 105 168 451 80 429 452 473 106 170 454
10 21 66 79 10 78 81 449 24 68 84
10 105 87 86 10 108 88 162 109 92 91
10 342 212 234 44 389 235 460 438 238 237
10 203 316 324 252 446 464 333 256 319 329
10 212 204 43 247 367 362 214 248 276 249
CELL_TYPES 265
24
24
24
24
24
24
24
24
24
24
24
24
24
24
24
24
24
24
24
24
24
24
24
24
24
24
24
24
24
24
24
24
24
24
24
24
24
24
24
24
24
24
24
24
24
24
24
24
24
24
24
24
24
24
24
24
24
24
24
24
24
24
24
24
24
24
24
24
24
24
24
24
24
24
24
24
24
24
24
24
24
24
24
24
24
24
24
24
24
24
24
24
24
24
24
24
24
24
24
24
24
24
24
24
24
24
24
24
24
24
24
24
24
24
24
24
24
24
24
24
24
24
24
24
24
24
24
24
24
24
24
24
24
24
24
24
24
24
24
24
24
24
24
24
24
24
24
24
24
24
24
24
24
24
24
24
24
24
24
24
24
24
24
24
24
24
24
24
24
24
24
24
24
24
24
24
24
24
24
24
24
24
24
24
24
24
24
24
24
24
24
24
24
24
24
24
24
24
24
24
24
24
24
24
24
24
24
24
24
24
24
24
24
24
24
24
24
24
24
24
24
24
24
24
24
24
24
24
24
24
24
24
24
24
24
24
24
24
24
24
24
24
24
24
24
24
24
24
24
24
24
24
24
24
24
24
24
24
24
24
24
24
24
24
24
POINT_DATA 474
SCALARS fixed int 1
LOOKUP_TABLE default
1 
0 
0 
0 
0 
0 
0 
0 
0 
0 
0 
0 
0 
0 
0 
0 
0 
1 
0 
1 
0 
1 
0 
0 
0 
0 
0 
0 
0 
0 
0 
0 
0 
0 
0 
0 
0 
0 
0 
0 
0 
0 
0 
0 
0 
0 
0 
0 
0 
0 
0 
0 
0 
0 
0 
0 
0 
0 
0 
0 
0 
0 
0 
0 
0 
1 
1 
0 
0 
1 
0 
0 
0 
0 
0 
0 
0 
0 
0 
1 
1 
1 
1 
1 
0 
0 
1 
1 
0 
0 
0 
0 
0 
0 
0 
0 
0 
0 
1 
1 
1 
1 
1 
0 
0 
1 
1 
1 
1 
0 
1 
1 
0 
0 
1 
0 
0 
0 
0 
1 
0 
0 
0 
0 
0 
0 
0 
1 
1 
1 
0 
1 
0 
0 
1 
1 
1 
1 
0 
0 
1 
1 
1 
0 
0 
1 
0 
0 
0 
0 
0 
0 
0 
0 
0 
0 
0 
0 
0 
0 
0 
1 
1 
1 
0 
1 
0 
0 
1 
1 
0 
0 
1 
1 
1 
1 
1 
1 
0 
1 
1 
1 
1 
1 
1 
1 
0 
1 
0 
0 
0 
0 
0 
1 
1 
1 
1 
1 
0 
1 
1 
1 
1 
1 
0 
1 
0 
0 
0 
0 
0 
1 
1 
0 
0 
1 
0 
0 
0 
1 
1 
1 
1 
0 
0 
1 
1 
1 
1 
1 
1 
0 
0 
0 
1 
0 
0 
0 
0 
1 
1 
0 
0 
0 
0 
0 
0 
0 
0 
0 
0 
1 
0 
0 
0 
0 
0 
0 
0 
0 
0 
0 
0 
0 
0 
0 
0 
0 
1 
1 
0 
0 
1 
1 
0 
0 
0 
1 
1 
1 
1 
1 
1 
1 
1 
0 
0 
0 
0 
0 
0 
0 
0 
1 
1 
0 
0 
0 
0 
0 
0 
0 
0 
0 
0 
0 
0 
1 
1 
1 
1 
1 
1 
0 
0 
0 
1 
1 
1 
0 
0 
0 
1 
1 
1 
0 
0 
0 
0 
0 
0 
0 
0 
1 
1 
1 
0 
0 
0 
0 
0 
1 
1 
1 
1 
0 
0 
0 
1 
0 
0 
1 
1 
1 
0 
0 
0 
1 
1 
1 
1 
0 
0 
1 
1 
0 
0 
0 
1 
0 
0 
1 
1 
1 
0 
0 
1 
1 
1 
0 
0 
1 
1 
0 
0 
0 
1 
1 
1 
1 
0 
0 
1 
1 
0 
1 
1 
0 
0 
1 
1 
0 
0 
0 
0 
1 
1 
1 
0 
1 
0 
1 
1 
1 
1 
1 
0 
0 
1 
1 
1 
0 
1 
1 
1 
1 
1 
1 
1 
1 
1 
1 
1 
1 
1 
1 
1 
0 
0 
1 
1 
1 
1 
1 
1 
1 
1 
1 
1 
1 
1 
1 
1 
1 
1 
1 
1 
1 
0 
1 
1 
1 
1 
1 
1 
1 
1 
1 
1 
1 
1 
1 
1 
1 
CELL_DATA 265
SCALARS GLOBAL_ID int 1
LOOKUP_TABLE default
1 
2 
3 
4 
5 
6 
7 
8 
9 
10 
11 
12 
13 
14 
15 
16 
17 
18 
19 
20 
21 
22 
23 
24 
25 
26 
27 
28 
29 
30 
31 
32 
33 
34 
35 
36 
37 
38 
39 
40 
41 
42 
43 
44 
45 
46 
47 
48 
49 
50 
51 
52 
53 
54 
55 
56 
57 
58 
59 
60 
61 
62 
63 
64 
65 
66 
67 
68 
69 
70 
71 
72 
73 
74 
75 
76 
77 
78 
79 
80 
81 
82 
83 
84 
85 
86 
87 
88 
89 
90 
91 
92 
93 
94 
95 
96 
97 
98 
99 
100 
101 
102 
103 
104 
105 
106 
107 
108 
109 
110 
111 
112 
113 
114 
115 
116 
117 
118 
119 
120 
121 
122 
123 
124 
125 
126 
127 
128 
129 
130 
131 
132 
133 
134 
135 
136 
137 
138 
139 
140 
141 
142 
143 
144 
145 
146 
147 
148 
149 
150 
151 
152 
153 
154 
155 
156 
157 
158 
159 
160 
161 
162 
163 
164 
165 
166 
167 
168 
169 
170 
171 
172 
173 
174 
175 
176 
177 
178 
179 
180 
181 
182 
183 
184 
185 
186 
187 
188 
189 
190 
191 
192 
193 
194 
195 
196 
197 
198 
199 
200 
201 
202 
203 
204 
205 
206 
207 
208 
209 
210 
211 
212 
213 
214 
215 
216 
217 
218 
219 
220 
221 
222 
223 
224 
225 
226 
227 
228 
229 
230 
231 
232 
233 
234 
235 
236 
237 
238 
239 
240 
241 
242 
243 
244 
245 
246 
247 
248 
249 
250 
251 
252 
253 
254 
255 
256 
257 
258 
259 
260 
261 
262 
263 
264 
265 
