# vtk DataFile Version 2.0
Mesquite Mesh original_mesh .
ASCII
DATASET UNSTRUCTURED_GRID
POINTS 75 float
      0.0		   0.0			0.0
      0.000000000000       0.000000000000       0.000000000000
      0.100000000000       0.000000000000       0.000000000000
      0.133333333333       0.066666666667       0.000000000000
      0.066666666667       0.133333333333       0.000000000000
      0.000000000000       0.100000000000       0.000000000000
      0.300000000000       0.000000000000       0.000000000000
      0.266666666667       0.066666666667       0.000000000000
      0.500000000000       0.000000000000       0.000000000000
      0.533333333333       0.066666666667       0.000000000000
      0.466666666667       0.133333333333       0.000000000000
      0.333333333333       0.133333333333       0.000000000000
      0.700000000000       0.000000000000       0.000000000000
      0.733333333333       0.066666666667       0.000000000000
      0.666666666667       0.133333333333       0.000000000000
      0.900000000000       0.000000000000       0.000000000000
      0.866666666667       0.066666666667       0.000000000000
      1.000000000000       0.000000000000       0.000000000000
      1.000000000000       0.100000000000       0.000000000000
      0.933333333333       0.133333333333       0.000000000000
      1.000000000000       0.300000000000       0.000000000000
      0.933333333333       0.266666666667       0.000000000000
      1.000000000000       0.500000000000       0.000000000000
      0.933333333333       0.466666666667       0.000000000000
      0.866666666667       0.333333333333       0.000000000000
      1.000000000000       0.700000000000       0.000000000000
      0.933333333333       0.733333333333       0.000000000000
      0.866666666667       0.666666666667       0.000000000000
      0.866666666667       0.533333333333       0.000000000000
      1.000000000000       0.900000000000       0.000000000000
      0.933333333333       0.866666666667       0.000000000000
      1.000000000000       1.000000000000       0.000000000000
      0.900000000000       1.000000000000       0.000000000000
      0.866666666667       0.933333333333       0.000000000000
      0.700000000000       1.000000000000       0.000000000000
      0.733333333333       0.933333333333       0.000000000000
      0.500000000000       1.000000000000       0.000000000000
      0.533333333333       0.933333333333       0.000000000000
      0.666666666667       0.866666666667       0.000000000000
      0.300000000000       1.000000000000       0.000000000000
      0.333333333333       0.933333333333       0.000000000000
      0.466666666667       0.866666666667       0.000000000000
      0.100000000000       1.000000000000       0.000000000000
      0.133333333333       0.933333333333       0.000000000000
      0.266666666667       0.866666666667       0.000000000000
      0.000000000000       1.000000000000       0.000000000000
      0.000000000000       0.900000000000       0.000000000000
      0.066666666667       0.866666666667       0.000000000000
      0.000000000000       0.700000000000       0.000000000000
      0.066666666667       0.733333333333       0.000000000000
      0.000000000000       0.500000000000       0.000000000000
      0.066666666667       0.466666666667       0.000000000000
      0.133333333333       0.533333333333       0.000000000000
      0.133333333333       0.666666666667       0.000000000000
      0.000000000000       0.300000000000       0.000000000000
      0.066666666667       0.333333333333       0.000000000000
      0.133333333333       0.266666666667       0.000000000000
      0.333333333333       0.266666666667       0.000000000000
      0.266666666667       0.333333333333       0.000000000000
      0.333333333333       0.466666666667       0.000000000000
      0.266666666667       0.533333333333       0.000000000000
      0.333333333333       0.666666666667       0.000000000000
      0.266666666667       0.733333333333       0.000000000000
      0.533333333333       0.266666666667       0.000000000000
      0.466666666667       0.333333333333       0.000000000000
      0.466666666667       0.466666666667       0.000000000000
      0.533333333333       0.533333333333       0.000000000000
      0.533333333333       0.666666666667       0.000000000000
      0.466666666667       0.733333333333       0.000000000000
      0.733333333333       0.266666666667       0.000000000000
      0.666666666667       0.333333333333       0.000000000000
      0.666666666667       0.466666666667       0.000000000000
      0.733333333333       0.533333333333       0.000000000000
      0.733333333333       0.666666666667       0.000000000000
      0.666666666667       0.733333333333       0.000000000000
CELLS 36 230
5         2        3        4        5        1
4         7        3        2        6
6         9       10       11        7        6        8
5        13       14        9        8       12
4        16       13       12       15
5        18       19       16       15       17
4        21       19       18       20
5        23       24       21       20       22
6        26       27       28       23       22       25
4        30       26       25       29
5        32       33       30       29       31
4        35       33       32       34
5        37       38       35       34       36
5        40       41       37       36       39
5        43       44       40       39       42
5        46       47       43       42       45
4        49       47       46       48
6        51       52       53       49       48       50
4        55       51       50       54
5         4       56       55       54        5
7        57       58       56        4        3        7       11
7        56       58       59       60       52       51       55
5        62       53       52       60       61
6        53       62       44       43       47       49
5        10       63       64       57       11
5        64       65       59       58       57
7        65       66       67       68       61       60       59
6        40       44       62       61       68       41
6        10        9       14       69       70       63
6        70       71       66       65       64       63
6        72       73       74       67       66       71
6        68       67       74       38       37       41
7        24       69       14       13       16       19       21
7        70       69       24       23       28       72       71
4        73       72       28       27
8        26       30       33       35       38       74       73       27
CELL_TYPES 36
7
7
7
7
7
7
7
7
7
7
7
7
7
7
7
7
7
7
7
7
7
7
7
7
7
7
7
7
7
7
7
7
7
7
7
7
POINT_DATA 75
SCALARS fixed float
LOOKUP_TABLE default
0
1
1
0
0
1
1
0
1
0
0
0
1
0
0
1
0
1
1
0
1
0
1
0
0
1
0
0
0
1
0
1
1
0
1
0
1
0
0
1
0
0
1
0
0
1
1
0
1
0
1
0
0
0
1
0
0
0
0
0
0
0
0
0
0
0
0
0
0
0
0
0
0
0
0
