# vtk DataFile Version 3.0
MOAB 3.99 (Alpha)
ASCII
DATASET UNSTRUCTURED_GRID
POINTS 315 double
10 0 0
10 7 0
10 0.5 0
10 1 0
10 1.5 0
10 2 0
10 2.5 0
10 3 0
10 3.5 0
10 4 0
10 4.5 0
10 5 0
10 5.5 0
10 6 0
10 6.5 0
0 7 0
9.5 7 0
9 7 0
8.5 7 0
8 7 0
7.5 7 0
7 7 0
6.5 7 0
6 7 0
5.5 7 0
5 7 0
4.5 7 0
4 7 0
3.5 7 0
3 7 0
2.5 7 0
2 7 0
1.5 7 0
1 7 0
0.5 7 0
0 0 0
0 6.5 0
0 6 0
0 5.5 0
0 5 0
0 4.5 0
0 4 0
0 3.5 0
0 3 0
0 2.5 0
0 2 0
0 1.5 0
0 1 0
0 0.5 0
0.5 0 0
1 0 0
1.5 0 0
2 0 0
2.5 0 0
3 0 0
3.5 0 0
4 0 0
4.5 0 0
5 0 0
5.5 0 0
6 0 0
6.5 0 0
7 0 0
7.5 0 0
8 0 0
8.5 0 0
9 0 0
9.5 0 0
9.5 0.5 0
9.5 1 0
9.5 1.5 0
9.5 2 0
9.5 2.5 0
9.5 3 0
9.5 3.5 0
9.5 4 0
9.5 4.5 0
9.5 5 0
9.5 5.5 0
9.5 6 0
9.5 6.5 0
9 0.5 0
9 1 0
9 1.5 0
9 2 0
9 2.5 0
9 3 0
9 3.5 0
9 4 0
9 4.5 0
9 5 0
9 5.5 0
9 6 0
9 6.5 0
8.5 0.5 0
8.5 1 0
8.5 1.5 0
8.5 2 0
8.5 2.5 0
8.5 3 0
8.5 3.5 0
8.5 4 0
8.5 4.5 0
8.5 5 0
8.5 5.5 0
8.5 6 0
8.5 6.5 0
8 0.5 0
8 1 0
8 1.5 0
8 2 0
8 2.5 0
8 3 0
8 3.5 0
8 4 0
8 4.5 0
8 5 0
8 5.5 0
8 6 0
8 6.5 0
7.5 0.5 0
7.5 1 0
7.5 1.5 0
7.5 2 0
7.5 2.5 0
7.5 3 0
7.5 3.5 0
7.5 4 0
7.5 4.5 0
7.5 5 0
7.5 5.5 0
7.5 6 0
7.5 6.5 0
7 0.5 0
7 1 0
7 1.5 0
7 2 0
7 2.5 0
7 3 0
7 3.5 0
7 4 0
7 4.5 0
7 5 0
7 5.5 0
7 6 0
7 6.5 0
6.5 0.5 0
6.5 1 0
6.5 1.5 0
6.5 2 0
6.5 2.5 0
6.5 3 0
6.5 3.5 0
6.5 4 0
6.5 4.5 0
6.5 5 0
6.5 5.5 0
6.5 6 0
6.5 6.5 0
6 0.5 0
6 1 0
6 1.5 0
6 2 0
6 2.5 0
6 3 0
6 3.5 0
6 4 0
6 4.5 0
6 5 0
6 5.5 0
6 6 0
6 6.5 0
5.5 0.5 0
5.5 1 0
5.5 1.5 0
5.5 2 0
5.5 2.5 0
5.5 3 0
5.5 3.5 0
5.5 4 0
5.5 4.5 0
5.5 5 0
5.5 5.5 0
5.5 6 0
5.5 6.5 0
5 0.5 0
5 1 0
5 1.5 0
5 2 0
5 2.5 0
5 3 0
5 3.5 0
5 4 0
5 4.5 0
5 5 0
5 5.5 0
5 6 0
5 6.5 0
4.5 0.5 0
4.5 1 0
4.5 1.5 0
4.5 2 0
4.5 2.5 0
4.5 3 0
4.5 3.5 0
4.5 4 0
4.5 4.5 0
4.5 5 0
4.5 5.5 0
4.5 6 0
4.5 6.5 0
4 0.5 0
4 1 0
4 1.5 0
4 2 0
4 2.5 0
4 3 0
4 3.5 0
4 4 0
4 4.5 0
4 5 0
4 5.5 0
4 6 0
4 6.5 0
3.5 0.5 0
3.5 1 0
3.5 1.5 0
3.5 2 0
3.5 2.5 0
3.5 3 0
3.5 3.5 0
3.5 4 0
3.5 4.5 0
3.5 5 0
3.5 5.5 0
3.5 6 0
3.5 6.5 0
3 0.5 0
3 1 0
3 1.5 0
3 2 0
3 2.5 0
3 3 0
3 3.5 0
3 4 0
3 4.5 0
3 5 0
3 5.5 0
3 6 0
3 6.5 0
2.5 0.5 0
2.5 1 0
2.5 1.5 0
2.5 2 0
2.5 2.5 0
2.5 3 0
2.5 3.5 0
2.5 4 0
2.5 4.5 0
2.5 5 0
2.5 5.5 0
2.5 6 0
2.5 6.5 0
2 0.5 0
2 1 0
2 1.5 0
2 2 0
2 2.5 0
2 3 0
2 3.5 0
2 4 0
2 4.5 0
2 5 0
2 5.5 0
2 6 0
2 6.5 0
1.5 0.5 0
1.5 1 0
1.5 1.5 0
1.5 2 0
1.5 2.5 0
1.5 3 0
1.5 3.5 0
1.5 4 0
1.5 4.5 0
1.5 5 0
1.5 5.5 0
1.5 6 0
1.5 6.5 0
1 0.5 0
1 1 0
1 1.5 0
1 2 0
1 2.5 0
1 3 0
1 3.5 0
1 4 0
1 4.5 0
1 5 0
1 5.5 0
1 6 0
1 6.5 0
0.5 0.5 0
0.5 1 0
0.5 1.5 0
0.5 2 0
0.5 2.5 0
0.5 3 0
0.5 3.5 0
0.5 4 0
0.5 4.5 0
0.5 5 0
0.5 5.5 0
0.5 6 0
0.5 6.5 0
CELLS 280 1400
4 314 34 15 36
4 313 314 36 37
4 312 313 37 38
4 311 312 38 39
4 310 311 39 40
4 309 310 40 41
4 308 309 41 42
4 307 308 42 43
4 306 307 43 44
4 305 306 44 45
4 304 305 45 46
4 303 304 46 47
4 302 303 47 48
4 49 302 48 35
4 301 33 34 314
4 300 301 314 313
4 299 300 313 312
4 298 299 312 311
4 297 298 311 310
4 296 297 310 309
4 295 296 309 308
4 294 295 308 307
4 293 294 307 306
4 292 293 306 305
4 291 292 305 304
4 290 291 304 303
4 289 290 303 302
4 50 289 302 49
4 288 32 33 301
4 287 288 301 300
4 286 287 300 299
4 285 286 299 298
4 284 285 298 297
4 283 284 297 296
4 282 283 296 295
4 281 282 295 294
4 280 281 294 293
4 279 280 293 292
4 278 279 292 291
4 277 278 291 290
4 276 277 290 289
4 51 276 289 50
4 275 31 32 288
4 274 275 288 287
4 273 274 287 286
4 272 273 286 285
4 271 272 285 284
4 270 271 284 283
4 269 270 283 282
4 268 269 282 281
4 267 268 281 280
4 266 267 280 279
4 265 266 279 278
4 264 265 278 277
4 263 264 277 276
4 52 263 276 51
4 262 30 31 275
4 261 262 275 274
4 260 261 274 273
4 259 260 273 272
4 258 259 272 271
4 257 258 271 270
4 256 257 270 269
4 255 256 269 268
4 254 255 268 267
4 253 254 267 266
4 252 253 266 265
4 251 252 265 264
4 250 251 264 263
4 53 250 263 52
4 249 29 30 262
4 248 249 262 261
4 247 248 261 260
4 246 247 260 259
4 245 246 259 258
4 244 245 258 257
4 243 244 257 256
4 242 243 256 255
4 241 242 255 254
4 240 241 254 253
4 239 240 253 252
4 238 239 252 251
4 237 238 251 250
4 54 237 250 53
4 236 28 29 249
4 235 236 249 248
4 234 235 248 247
4 233 234 247 246
4 232 233 246 245
4 231 232 245 244
4 230 231 244 243
4 229 230 243 242
4 228 229 242 241
4 227 228 241 240
4 226 227 240 239
4 225 226 239 238
4 224 225 238 237
4 55 224 237 54
4 223 27 28 236
4 222 223 236 235
4 221 222 235 234
4 220 221 234 233
4 219 220 233 232
4 218 219 232 231
4 217 218 231 230
4 216 217 230 229
4 215 216 229 228
4 214 215 228 227
4 213 214 227 226
4 212 213 226 225
4 211 212 225 224
4 56 211 224 55
4 210 26 27 223
4 209 210 223 222
4 208 209 222 221
4 207 208 221 220
4 206 207 220 219
4 205 206 219 218
4 204 205 218 217
4 203 204 217 216
4 202 203 216 215
4 201 202 215 214
4 200 201 214 213
4 199 200 213 212
4 198 199 212 211
4 57 198 211 56
4 197 25 26 210
4 196 197 210 209
4 195 196 209 208
4 194 195 208 207
4 193 194 207 206
4 192 193 206 205
4 191 192 205 204
4 190 191 204 203
4 189 190 203 202
4 188 189 202 201
4 187 188 201 200
4 186 187 200 199
4 185 186 199 198
4 58 185 198 57
4 184 24 25 197
4 183 184 197 196
4 182 183 196 195
4 181 182 195 194
4 180 181 194 193
4 179 180 193 192
4 178 179 192 191
4 177 178 191 190
4 176 177 190 189
4 175 176 189 188
4 174 175 188 187
4 173 174 187 186
4 172 173 186 185
4 59 172 185 58
4 171 23 24 184
4 170 171 184 183
4 169 170 183 182
4 168 169 182 181
4 167 168 181 180
4 166 167 180 179
4 165 166 179 178
4 164 165 178 177
4 163 164 177 176
4 162 163 176 175
4 161 162 175 174
4 160 161 174 173
4 159 160 173 172
4 60 159 172 59
4 158 22 23 171
4 157 158 171 170
4 156 157 170 169
4 155 156 169 168
4 154 155 168 167
4 153 154 167 166
4 152 153 166 165
4 151 152 165 164
4 150 151 164 163
4 149 150 163 162
4 148 149 162 161
4 147 148 161 160
4 146 147 160 159
4 61 146 159 60
4 145 21 22 158
4 144 145 158 157
4 143 144 157 156
4 142 143 156 155
4 141 142 155 154
4 140 141 154 153
4 139 140 153 152
4 138 139 152 151
4 137 138 151 150
4 136 137 150 149
4 135 136 149 148
4 134 135 148 147
4 133 134 147 146
4 62 133 146 61
4 132 20 21 145
4 131 132 145 144
4 130 131 144 143
4 129 130 143 142
4 128 129 142 141
4 127 128 141 140
4 126 127 140 139
4 125 126 139 138
4 124 125 138 137
4 123 124 137 136
4 122 123 136 135
4 121 122 135 134
4 120 121 134 133
4 63 120 133 62
4 119 19 20 132
4 118 119 132 131
4 117 118 131 130
4 116 117 130 129
4 115 116 129 128
4 114 115 128 127
4 113 114 127 126
4 112 113 126 125
4 111 112 125 124
4 110 111 124 123
4 109 110 123 122
4 108 109 122 121
4 107 108 121 120
4 64 107 120 63
4 106 18 19 119
4 105 106 119 118
4 104 105 118 117
4 103 104 117 116
4 102 103 116 115
4 101 102 115 114
4 100 101 114 113
4 99 100 113 112
4 98 99 112 111
4 97 98 111 110
4 96 97 110 109
4 95 96 109 108
4 94 95 108 107
4 65 94 107 64
4 93 17 18 106
4 92 93 106 105
4 91 92 105 104
4 90 91 104 103
4 89 90 103 102
4 88 89 102 101
4 87 88 101 100
4 86 87 100 99
4 85 86 99 98
4 84 85 98 97
4 83 84 97 96
4 82 83 96 95
4 81 82 95 94
4 66 81 94 65
4 80 16 17 93
4 79 80 93 92
4 78 79 92 91
4 77 78 91 90
4 76 77 90 89
4 75 76 89 88
4 74 75 88 87
4 73 74 87 86
4 72 73 86 85
4 71 72 85 84
4 70 71 84 83
4 69 70 83 82
4 68 69 82 81
4 67 68 81 66
4 14 1 16 80
4 13 14 80 79
4 12 13 79 78
4 11 12 78 77
4 10 11 77 76
4 9 10 76 75
4 8 9 75 74
4 7 8 74 73
4 6 7 73 72
4 5 6 72 71
4 4 5 71 70
4 3 4 70 69
4 2 3 69 68
4 0 2 68 67
CELL_TYPES 280
9
9
9
9
9
9
9
9
9
9
9
9
9
9
9
9
9
9
9
9
9
9
9
9
9
9
9
9
9
9
9
9
9
9
9
9
9
9
9
9
9
9
9
9
9
9
9
9
9
9
9
9
9
9
9
9
9
9
9
9
9
9
9
9
9
9
9
9
9
9
9
9
9
9
9
9
9
9
9
9
9
9
9
9
9
9
9
9
9
9
9
9
9
9
9
9
9
9
9
9
9
9
9
9
9
9
9
9
9
9
9
9
9
9
9
9
9
9
9
9
9
9
9
9
9
9
9
9
9
9
9
9
9
9
9
9
9
9
9
9
9
9
9
9
9
9
9
9
9
9
9
9
9
9
9
9
9
9
9
9
9
9
9
9
9
9
9
9
9
9
9
9
9
9
9
9
9
9
9
9
9
9
9
9
9
9
9
9
9
9
9
9
9
9
9
9
9
9
9
9
9
9
9
9
9
9
9
9
9
9
9
9
9
9
9
9
9
9
9
9
9
9
9
9
9
9
9
9
9
9
9
9
9
9
9
9
9
9
9
9
9
9
9
9
9
9
9
9
9
9
9
9
9
9
9
9
9
9
9
9
9
9
9
9
9
9
9
9
9
9
9
9
9
9
9
9
9
9
9
9
POINT_DATA 315
SCALARS GLOBAL_ID int 1
LOOKUP_TABLE default
1 
2 
3 
4 
5 
6 
7 
8 
9 
10 
11 
12 
13 
14 
15 
16 
17 
18 
19 
20 
21 
22 
23 
24 
25 
26 
27 
28 
29 
30 
31 
32 
33 
34 
35 
36 
37 
38 
39 
40 
41 
42 
43 
44 
45 
46 
47 
48 
49 
50 
51 
52 
53 
54 
55 
56 
57 
58 
59 
60 
61 
62 
63 
64 
65 
66 
67 
68 
69 
70 
71 
72 
73 
74 
75 
76 
77 
78 
79 
80 
81 
82 
83 
84 
85 
86 
87 
88 
89 
90 
91 
92 
93 
94 
95 
96 
97 
98 
99 
100 
101 
102 
103 
104 
105 
106 
107 
108 
109 
110 
111 
112 
113 
114 
115 
116 
117 
118 
119 
120 
121 
122 
123 
124 
125 
126 
127 
128 
129 
130 
131 
132 
133 
134 
135 
136 
137 
138 
139 
140 
141 
142 
143 
144 
145 
146 
147 
148 
149 
150 
151 
152 
153 
154 
155 
156 
157 
158 
159 
160 
161 
162 
163 
164 
165 
166 
167 
168 
169 
170 
171 
172 
173 
174 
175 
176 
177 
178 
179 
180 
181 
182 
183 
184 
185 
186 
187 
188 
189 
190 
191 
192 
193 
194 
195 
196 
197 
198 
199 
200 
201 
202 
203 
204 
205 
206 
207 
208 
209 
210 
211 
212 
213 
214 
215 
216 
217 
218 
219 
220 
221 
222 
223 
224 
225 
226 
227 
228 
229 
230 
231 
232 
233 
234 
235 
236 
237 
238 
239 
240 
241 
242 
243 
244 
245 
246 
247 
248 
249 
250 
251 
252 
253 
254 
255 
256 
257 
258 
259 
260 
261 
262 
263 
264 
265 
266 
267 
268 
269 
270 
271 
272 
273 
274 
275 
276 
277 
278 
279 
280 
281 
282 
283 
284 
285 
286 
287 
288 
289 
290 
291 
292 
293 
294 
295 
296 
297 
298 
299 
300 
301 
302 
303 
304 
305 
306 
307 
308 
309 
310 
311 
312 
313 
314 
315 
CELL_DATA 280
SCALARS GLOBAL_ID int 1
LOOKUP_TABLE default
280 
279 
278 
277 
276 
275 
274 
273 
272 
271 
270 
269 
268 
267 
266 
265 
264 
263 
262 
261 
260 
259 
258 
257 
256 
255 
254 
253 
252 
251 
250 
249 
248 
247 
246 
245 
244 
243 
242 
241 
240 
239 
238 
237 
236 
235 
234 
233 
232 
231 
230 
229 
228 
227 
226 
225 
224 
223 
222 
221 
220 
219 
218 
217 
216 
215 
214 
213 
212 
211 
210 
209 
208 
207 
206 
205 
204 
203 
202 
201 
200 
199 
198 
197 
196 
195 
194 
193 
192 
191 
190 
189 
188 
187 
186 
185 
184 
183 
182 
181 
180 
179 
178 
177 
176 
175 
174 
173 
172 
171 
170 
169 
168 
167 
166 
165 
164 
163 
162 
161 
160 
159 
158 
157 
156 
155 
154 
153 
152 
151 
150 
149 
148 
147 
146 
145 
144 
143 
142 
141 
140 
139 
138 
137 
136 
135 
134 
133 
132 
131 
130 
129 
128 
127 
126 
125 
124 
123 
122 
121 
120 
119 
118 
117 
116 
115 
114 
113 
112 
111 
110 
109 
108 
107 
106 
105 
104 
103 
102 
101 
100 
99 
98 
97 
96 
95 
94 
93 
92 
91 
90 
89 
88 
87 
86 
85 
84 
83 
82 
81 
80 
79 
78 
77 
76 
75 
74 
73 
72 
71 
70 
69 
68 
67 
66 
65 
64 
63 
62 
61 
60 
59 
58 
57 
56 
55 
54 
53 
52 
51 
50 
49 
48 
47 
46 
45 
44 
43 
42 
41 
40 
39 
38 
37 
36 
35 
34 
33 
32 
31 
30 
29 
28 
27 
26 
25 
24 
23 
22 
21 
20 
19 
18 
17 
16 
15 
14 
13 
12 
11 
10 
9 
8 
7 
6 
5 
4 
3 
2 
1 
