# vtk DataFile Version 2.0
Mesquite
ASCII
DATASET UNSTRUCTURED_GRID
POINTS 14 double
 1 -1 -1.7320508075688772
 1  1 -1.7320508075688772
 1  2  0.0
 1  1  1.7320508075688772
 1 -1  1.7320508075688772
 1 -2  0
 1  0  0

-1 -1 -1.7320508075688772
-1  1 -1.7320508075688772
-1  2  0.0
-1  1  1.7320508075688772
-1 -1  1.7320508075688772
-1 -2  0
-1  0  0

CELLS 6 42
6  0  1  6  7  8 13
6  1  2  6  8  9 13
6  2  3  6  9 10 13
6  3  4  6 10 11 13
6  4  5  6 11 12 13
6  5  0  6 12  7 13

CELL_TYPES 6
13
13
13
13
13
13

POINT_DATA 14 
SCALARS fixed int 1
LOOKUP_TABLE default
1
1
1
1
1
1
0

1
1
1
1
1
1
0
