# vtk DataFile Version 3.0
MOAB 3.99 (Alpha)
ASCII
DATASET UNSTRUCTURED_GRID
POINTS 96 double
-3.333633658 6.28868243 0
-2.5 8 0
-1.283699413 6.113239435 0
-2.916816829 7.144341215 0
-1.891849707 7.056619718 0
-2.308666536 6.200960932 0
-5 5.333333333 0
-5 8 0
-5 6.666666667 0
-4.166816829 7.144341215 0
-4.166816829 5.811007881 0
0.5256562779 5.377747768 0
-0.8009148639 4.112949774 0
-0.3790215678 5.745493602 0
-0.137629293 4.745348771 0
-1.042307139 5.113094605 0
3.058575154 2.935019466 0
4 1 0
2 1 0
3.529287577 1.967509733 0
3 1 0
2.529287577 1.967509733 0
6 4 0
6 1 0
4.680423844 2.743327406 0
6 2.5 0
5.340211922 1.871663703 0
5.340211922 3.371663703 0
2 7 0
2.462864099 5.025425503 0
2.231432049 6.012712752 0
1.494260188 5.201586636 0
1.262828139 6.188873884 0
-2.859834905 4.027750666 0
-2.071767159 5.070495051 0
-3.096734281 5.158216548 0
0 1 0
0 0 0
-1.236105374 1.987842779 0
0 0.5 0
-0.618052687 0.9939213893 0
-0.618052687 1.493921389 0
-5 2.666666667 0
-3.324228199 1.730485379 0
-3.929917452 3.347208666 0
-3.092031552 2.879118022 0
-4.162114099 2.198576023 0
-2.5 0 0
-1.25 0 0
-1.868052687 0.9939213893 0
-5 0 0
-4.162114099 0.8652426893 0
-2.912114099 0.8652426893 0
-3.75 0 0
0 8 0
-0.6418497067 7.056619718 0
-1.25 8 0
4.358753885 4.783195663 0
6 7 0
5.179376942 4.391597832 0
5.179376942 5.891597832 0
6 5.5 0
4 7 0
4.179376942 5.891597832 0
5 7 0
4.519588864 3.763261535 0
-5 1.333333333 0
-2.280166786 1.859164079 0
-5 4 0
-3.929917452 4.680542 0
-3.75 8 0
0 7 0
0.262828139 6.188873884 0
1 6 0
4.340211922 1.871663703 0
3.869499499 2.839173436 0
3.708664519 3.859107565 0
2.760719626 3.980222484 0
3.410808992 4.904310583 0
3.231432049 6.012712752 0
3 7 0
5 1 0
0.8494090948 3.058168222 0
0.4247045474 2.029084111 0
1.424704547 2.029084111 0
1 2 0
-0.6418497067 6.556619718 0
0.02424711544 3.585558998 0
-0.1933481397 2.5230055 0
-1.018510119 3.050396276 0
-2.047970139 3.007796722 0
0 7.5 0
-1.830374884 4.07035022 0
1.656136597 4.041796863 0
0.6875326863 4.217957995 0
1.953992124 2.996593844 0
CELLS 39 273
6 0 2 1 5 4 3
6 6 0 7 10 9 8
6 2 12 11 15 14 13
6 16 18 17 21 20 19
6 22 24 23 27 26 25
6 28 11 29 32 31 30
6 2 0 33 5 35 34
6 36 38 37 41 40 39
6 42 43 33 46 45 44
6 38 47 37 49 48 40
6 50 47 43 53 52 51
6 54 1 2 56 4 55
6 22 58 57 61 60 59
6 58 62 57 64 63 60
6 24 22 57 27 59 65
6 42 50 43 66 51 46
6 38 43 47 67 52 49
6 42 33 6 44 69 68
6 0 1 7 3 70 9
6 28 71 11 73 72 32
6 24 16 17 75 19 74
6 57 29 16 78 77 76
6 62 28 29 80 30 79
6 24 17 23 74 81 26
6 24 57 16 65 76 75
6 36 18 82 85 84 83
6 71 2 11 86 13 72
6 33 0 6 35 10 69
6 12 38 82 89 88 87
6 33 43 38 45 67 90
6 38 36 82 41 83 88
6 71 54 2 91 55 86
6 38 12 33 89 92 90
6 11 82 29 94 93 31
6 57 62 29 63 79 78
6 16 82 18 95 84 21
6 82 16 29 95 77 93
6 12 2 33 15 34 92
6 12 82 11 87 94 14
CELL_TYPES 39
22
22
22
22
22
22
22
22
22
22
22
22
22
22
22
22
22
22
22
22
22
22
22
22
22
22
22
22
22
22
22
22
22
22
22
22
22
22
22
POINT_DATA 96
SCALARS fixed int 1
LOOKUP_TABLE default
0 
1 
0 
0 
0 
0 
1 
1 
1 
0 
0 
0 
0 
0 
0 
0 
0 
1 
1 
0 
1 
0 
1 
1 
0 
1 
0 
0 
1 
0 
0 
0 
0 
0 
0 
0 
1 
1 
0 
1 
0 
0 
1 
0 
0 
0 
0 
1 
1 
0 
1 
0 
0 
1 
1 
0 
1 
0 
1 
0 
0 
1 
1 
0 
1 
0 
1 
0 
1 
0 
1 
1 
0 
1 
0 
0 
0 
0 
0 
0 
1 
1 
0 
0 
0 
1 
0 
0 
0 
0 
0 
1 
0 
0 
0 
0 
CELL_DATA 39
SCALARS GLOBAL_ID int 1
LOOKUP_TABLE default
1 
2 
3 
4 
5 
6 
7 
8 
9 
10 
11 
12 
13 
14 
15 
16 
17 
18 
19 
20 
21 
22 
23 
24 
25 
26 
27 
28 
29 
30 
31 
32 
33 
34 
35 
36 
37 
38 
39 
