# vtk DataFile Version 3.0
MOAB 3.99 (Alpha)
ASCII
DATASET UNSTRUCTURED_GRID
POINTS 19 double
    0.000000 0.000000 0 
    1.000000 1.732051 0 
    3.000000 1.732051 0 
    4.000000 5.000000 0 
    0.000000 6.000000 0 
    -0.200000 3.000000 0 
    1.104572 3.187124 0 
    0.267949 1.000000 0 
    2.000000 2.000000 0 
    3.500000 3.366025 0 
    2.000000 5.500000 0 
    -0.100000 4.500000 0 
    -0.100000 1.500000 0 
    0.552286 1.593562 0 
    1.052286 2.459587 0 
    2.052286 2.459587 0 
    2.552286 4.093562 0 
    0.552286 4.593562 0 
    0.452286 3.093562 0 
CELLS 6 42
6 0 1 6 7 14 13
6 1 2 6 8 15 14
6 2 3 6 9 16 15
6 6 3 4 16 10 17
6 5 6 4 18 17 11
6 5 0 6 12 13 18
CELL_TYPES 19
22
22
22
22
22
22
22
22
22
22
22
22
22
22
22
22
22
22
22
POINT_DATA 19
SCALARS fixed int 1
LOOKUP_TABLE default
1
1
1
1
1
1
0
1
1
1
1
1
1
0
0
0
0
0
0
