# vtk DataFile Version 2.0
Mesquite Mesh original_mesh .
ASCII
DATASET UNSTRUCTURED_GRID
POINTS 10 float
0 2 0
1.73205080  1  0
1.73205080  -1 0
.8 -1.5 0
-1.73205080  -1 0
-1.73205080  1  0
-.8 -.8 0
1.73205080  -3  0
-1.73205080  -3  0
0  -4   0
CELLS 10 40
3 6 1 0 
3 6 2 1
3 6 3 2
3 6 4 3
3 6 5 4
3 6 0 5
3 3 7 2
3 3 9 7
3 3 8 9
3 3 4 8
CELL_TYPES 10
5
5
5
5
5
5
5
5
5
5
POINT_DATA 10
SCALARS fixed float
LOOKUP_TABLE default
1
1
1
0
1
1
0
1
1
1
