# vtk DataFile Version 2.0
Mesquite Mesh original_mesh .
ASCII
DATASET UNSTRUCTURED_GRID
POINTS 80 float
-5 -5 5
-5 -5 -5
-5 -5 4
-5 -5 3
-5 -5 2
-5 -5 1
-5 -5 0
-5 -5 -1
-5 -5 -2
-5 -5 -3
-5 -5 -4
5 -5 -5
2.5 -5 -5
0 -5 -5
-2.5 -5 -5
5 -5 5
5 -5 2.5
5 -5 0
5 -5 -2.5
-4 -5 5
-3 -5 5
-2 -5 5
-1 -5 5
0 -5 5
1 -5 5
2 -5 5
3 -5 5
4 -5 5
-4.16039 -5 3.36413
-3.95423 -5 2.46985
-3.90276 -5 1.46328
-3.95629 -5 0.417365
-4.00375 -5 -0.583271
-3.94658 -5 -1.59973
-3.82504 -5 -2.67827
-3.90638 -5 -3.91674
-1.21042 -5 -3.82217
0.182514 -5 -3.16083
1.48091 -5 -3.78207
3.92335 -5 -3.9309
3.36417 -5 -1.38124
3.09877 -5 0.333897
3.93115 -5 1.58597
2.87057 -5 4.25808
1.73239 -5 4.06328
0.621451 -5 3.92878
-0.456243 -5 3.95761
-1.51535 -5 4.0283
-2.56094 -5 4.04498
-3.67505 -5 4.09321
-3.14534 -5 3.14768
-2.69632 -5 2.01543
-2.86247 -5 0.821716
-2.95046 -5 -0.23949
-3.1235 -5 -1.13206
-2.73527 -5 -2.07251
-2.52959 -5 -3.32995
-1.22026 -5 -2.28488
0.365726 -5 -1.61607
1.72363 -5 -2.30922
3.03255 -5 -3.13993
1.82513 -5 -0.760176
1.64723 -5 0.677938
2.5378 -5 1.97358
3.7717 -5 3.37393
1.40837 -5 2.94461
0.0536319 -5 2.77326
-1.02956 -5 3.13533
-2.0355 -5 3.03512
-1.83665 -5 0.0670963
-2.05677 -5 -1.1051
-0.818919 -5 -0.790581
0.461927 -5 -0.218644
1.05656 -5 1.84263
-1.20123 -5 2.03601
2.49884 -5 3.28833
-1.83918 -5 1.13385
-0.704996 -5 0.649479
0.456937 -5 0.865784
-0.102041 -5 1.63733
CELLS 130 520
3 0 2 19 
3 2 3 28 
3 28 3 29 
3 29 3 4 
3 4 5 30 
3 30 5 31 
3 31 5 6 
3 6 7 32 
3 32 7 33 
3 33 7 8 
3 8 9 34 
3 34 9 35 
3 35 9 10 
3 14 13 36 
3 36 13 37 
3 37 13 38 
3 38 13 12 
3 12 11 39 
3 39 11 18 
3 18 17 40 
3 40 17 41 
3 41 17 42 
3 42 17 16 
3 43 26 25 
3 25 24 44 
3 44 24 45 
3 45 24 23 
3 23 22 46 
3 46 22 47 
3 47 22 21 
3 21 20 48 
3 48 20 49 
3 49 20 19 
3 19 2 49 
3 2 28 49 
3 28 29 50 
3 50 29 51 
3 51 29 30 
3 29 4 30 
3 30 31 52 
3 52 31 53 
3 53 31 32 
3 31 6 32 
3 32 33 54 
3 54 33 55 
3 55 33 34 
3 33 8 34 
3 34 35 56 
3 56 35 14 
3 14 36 56 
3 36 37 57 
3 57 37 58 
3 58 37 59 
3 59 37 38 
3 38 12 60 
3 60 12 39 
3 39 18 60 
3 18 40 60 
3 40 41 61 
3 61 41 62 
3 62 41 63 
3 63 41 42 
3 42 16 64 
3 43 25 44 
3 44 45 65 
3 65 45 66 
3 66 45 46 
3 45 23 46 
3 46 47 67 
3 67 47 68 
3 68 47 48 
3 47 21 48 
3 48 49 50 
3 49 28 50 
3 50 51 68 
3 68 48 50 
3 51 30 52 
3 52 53 69 
3 69 53 70 
3 70 53 54 
3 53 32 54 
3 54 55 70 
3 55 34 56 
3 56 36 57 
3 57 58 71 
3 71 58 72 
3 72 58 61 
3 61 62 72 
3 58 59 61 
3 62 63 73 
3 73 63 65 
3 65 66 73 
3 59 38 60 
3 60 40 59 
3 40 61 59 
3 63 42 64 
3 66 46 67 
3 67 68 74 
3 64 43 75 
3 75 43 44 
3 74 68 51 
3 51 52 76 
3 44 65 75 
3 65 63 75 
3 63 64 75 
3 76 52 69 
3 69 70 71 
3 70 55 57 
3 55 56 57 
3 57 71 70 
3 71 72 77 
3 77 72 78 
3 78 72 62 
3 62 73 78 
3 73 66 79 
3 79 66 74 
3 66 67 74 
3 74 51 76 
3 76 69 77 
3 69 71 77 
3 77 78 79 
3 78 73 79 
3 79 74 77 
3 74 76 77 
3 10 1 35 
3 1 14 35 
3 27 26 43 
3 27 43 64 
3 27 64 15 
3 64 16 15 
CELL_TYPES 130
5
5
5
5
5
5
5
5
5
5
5
5
5
5
5
5
5
5
5
5
5
5
5
5
5
5
5
5
5
5
5
5
5
5
5
5
5
5
5
5
5
5
5
5
5
5
5
5
5
5
5
5
5
5
5
5
5
5
5
5
5
5
5
5
5
5
5
5
5
5
5
5
5
5
5
5
5
5
5
5
5
5
5
5
5
5
5
5
5
5
5
5
5
5
5
5
5
5
5
5
5
5
5
5
5
5
5
5
5
5
5
5
5
5
5
5
5
5
5
5
5
5
5
5
5
5
5
5
5
5
POINT_DATA 80
SCALARS fixed float
LOOKUP_TABLE default
1
1
1
1
1
1
1
1
1
1
1
1
1
1
1
1
1
1
1
1
1
1
1
1
1
1
1
1
0
0
0
0
0
0
0
0
0
0
0
0
0
0
0
0
0
0
0
0
0
0
0
0
0
0
0
0
0
0
0
0
0
0
0
0
0
0
0
0
0
0
0
0
0
0
0
0
0
0
0
0
