# vtk DataFile Version 3.0
Mesquite Mesh
ASCII
DATASET UNSTRUCTURED_GRID
POINTS 183 double
5.650017861 10 -14.46375755
6.99358595 10 -8.00641405
6.345994797 10 -12.939397
6.862178584 10 -11.34935152
6.99358595 10 -9.682140454
4.463757552 10 -15.65001786
-6.99358595 10 -8.00641405
6.327530146 10 -8.00641405
5.661474341 10 -8.00641405
4.995418536 10 -8.00641405
4.329362731 10 -8.00641405
3.663306926 10 -8.00641405
2.997251122 10 -8.00641405
2.331195317 10 -8.00641405
1.665139512 10 -8.00641405
0.9990837072 10 -8.00641405
0.3330279024 10 -8.00641405
-0.3330279024 10 -8.00641405
-0.9990837072 10 -8.00641405
-1.665139512 10 -8.00641405
-2.331195317 10 -8.00641405
-2.997251122 10 -8.00641405
-3.663306926 10 -8.00641405
-4.329362731 10 -8.00641405
-4.995418536 10 -8.00641405
-5.661474341 10 -8.00641405
-6.327530146 10 -8.00641405
-6.99358595 10 -8.890834287
-6.99358595 10 -9.775254524
-6.962496876 10 -10.65869697
-6.823818984 10 -11.53158053
-6.57615624 10 -12.38000285
-6.223464124 10 -13.19041357
-5.771375568 10 -13.94986943
-5.227110985 10 -14.64624097
-4.599362958 10 -15.26840629
-3.898157399 10 -15.80642862
-3.134693432 10 -16.25171509
-2.321164524 10 -16.59715391
-1.470563739 10 -16.837228
-0.5964762267 10 -16.96810308
0.2871377502 10 -16.98768891
1.166165781 10 -16.89567269
2.026568698 10 -16.69352402
2.8546048 10 -16.38447146
3.659225669 10 -16.01734279
4.358914123 10 -15.28228076
4.254070694 10 -14.91454366
4.149227265 10 -14.54680656
4.044383836 10 -14.17906947
4.179069465 10 -14.04438384
4.546806564 10 -14.14922727
4.914543663 10 -14.25407069
5.282280762 10 -14.35891412
3.634286427 10 -15.40805638
3.577820197 10 -14.83126226
3.541276154 10 -14.24949018
3.637892192 10 -13.68073976
3.933570287 10 -13.20686152
4.317467112 10 -12.5673877
4.942511182 10 -12.77509047
5.611950516 10 -12.87051771
6.211361189 10 -9.605623603
5.480230195 10 -9.546497571
4.819413503 10 -9.411166164
4.198378436 10 -9.257797293
3.563240428 10 -9.125105489
2.920037692 10 -9.147841287
2.299787888 10 -9.069279627
1.641947923 10 -9.004178296
0.9600907456 10 -8.961721988
0.2755546607 10 -8.934635317
-0.4098009364 10 -8.917990003
-1.092212657 10 -8.904359775
-1.771135405 10 -8.890213118
-2.446014663 10 -8.859941469
-3.120801649 10 -8.825773761
-3.800096775 10 -8.804008839
-4.471561229 10 -8.78786947
-5.083064275 10 -8.693995291
-5.696934549 10 -8.720789115
-6.348497528 10 -8.794243484
-6.308964606 10 -9.5703976
-6.197438196 10 -10.35515527
-6.032494024 10 -11.15788249
-5.756166972 10 -11.92825359
-5.381678438 10 -12.68682206
-4.88729251 10 -13.40105955
-4.35636208 10 -14.11459286
-3.904136971 10 -14.83356036
-3.603175212 10 -15.36833642
-3.022224104 10 -15.47705672
-2.27624706 10 -15.67510334
-1.459159746 10 -15.85513958
-0.6136769621 10 -15.96095812
0.2454982856 10 -15.97568437
1.107820554 10 -15.89859238
1.965487716 10 -15.74271435
2.811965058 10 -15.55885108
5.97672322 10 -11.23553864
-5.669963609 10 -9.389806994
-5.473019332 10 -10.0503407
-5.298297206 10 -10.79408299
-5.042311782 10 -11.50739155
-4.627338934 10 -12.16208424
-4.079960106 10 -12.83058727
-3.334977937 10 -13.62669761
-3.128684691 10 -14.6878856
-2.29816509 10 -14.80079272
-1.465898708 10 -14.92464047
-0.6411809886 10 -15.01916225
0.201905324 10 -15.03269516
1.051457188 10 -14.97001294
1.892820264 10 -14.85240976
2.771948725 10 -14.76348967
5.223118672 10 -11.08211611
4.57804245 10 -10.80429091
4.01592476 10 -10.35118403
1.605840292 10 -9.980361121
2.301132291 10 -10.14267047
0.9053258887 10 -9.897479921
0.2047018821 10 -9.846800028
-0.4952607065 10 -9.816968203
-1.195932517 10 -9.795309918
-1.892893418 10 -9.773702051
-2.575707585 10 -9.705316613
-3.253196461 10 -9.630628029
-3.942209207 10 -9.589726401
-4.714107083 10 -9.64260171
-5.152984153 10 -9.240416908
2.668736321 10 -13.78251101
3.06018482 10 -13.02526273
3.413634428 10 -12.33680339
-4.626527895 10 -10.47121909
-4.436595323 10 -11.11204281
-4.019516248 10 -11.61375429
-3.460062234 10 -12.11894892
-2.789288887 10 -12.60251117
-1.464167384 10 -14.02941736
-2.300060801 10 -13.87862859
-0.6502016975 10 -14.10438252
0.1539085237 10 -14.13160739
0.9509428205 10 -14.06365245
1.759862234 10 -13.94146048
2.534159944 10 -12.3464394
2.139069395 10 -12.87694921
2.83496791 10 -11.61161474
1.521122454 10 -10.91813417
2.199470414 10 -11.14204776
0.8336652002 10 -10.78988257
0.1328382174 10 -10.73335446
-0.5766873796 10 -10.69985413
-1.295621407 10 -10.68567604
-2.037351102 10 -10.67044917
-2.728729511 10 -10.54005656
-3.389802907 10 -10.39852359
-4.005393526 10 -10.32305983
-4.006955815 10 -10.8346362
-3.581440137 10 -11.06301042
-2.989538269 10 -11.36203247
-2.239863572 10 -11.70913131
-1.385877174 10 -13.1669232
-2.119600585 10 -13.01590345
-0.6446865027 10 -13.24694768
0.1008310301 10 -13.26558517
0.8294978112 10 -13.21014617
1.523048478 10 -13.10670138
0.7641618026 10 -11.62962618
1.416271349 10 -11.71647716
0.0804998191 10 -11.59307144
-0.6267840108 10 -11.57962795
-1.37588726 10 -11.59707887
0.7499505267 10 -12.42796645
1.363338128 10 -12.40823581
-0.6292474695 10 -12.41836099
-1.315230567 10 -12.39571607
0.07082103553 10 -12.42862183
3.665962738 10 -11.36845293
2.970715686 10 -10.42141875
1.844424547 10 -12.38589811
2.018063401 10 -11.89687146
-1.893414916 10 -12.376879
3.506476177 10 -9.96518133
CELLS 155 775
4 66 65 117 182
4 178 182 117 177
4 67 66 182 178
4 175 161 162 181
4 160 181 162 137
4 171 175 181 160
4 162 139 106 137
4 139 108 107 106
4 117 116 59 177
4 116 115 60 59
4 146 148 119 178
4 144 180 148 146
4 170 174 175 171
4 148 180 168 147
4 145 179 180 144
4 179 173 168 180
4 165 172 173 166
4 145 166 173 179
4 165 164 176 172
4 167 172 176 169
4 178 119 68 67
4 58 132 177 59
4 132 146 178 177
4 170 169 176 174
4 164 163 174 176
4 163 161 175 174
4 157 156 155 158
4 167 168 173 172
4 155 154 159 158
4 154 153 160 159
4 153 152 171 160
4 152 151 170 171
4 151 150 169 170
4 150 149 167 169
4 149 147 168 167
4 130 143 166 145
4 143 142 165 166
4 142 141 164 165
4 141 140 163 164
4 140 138 161 163
4 138 139 162 161
4 137 136 159 160
4 136 135 158 159
4 135 134 157 158
4 134 133 156 157
4 128 127 156 133
4 127 126 155 156
4 126 125 154 155
4 125 124 153 154
4 124 123 152 153
4 123 122 151 152
4 122 121 150 151
4 121 120 149 150
4 120 118 147 149
4 118 119 148 147
4 132 131 144 146
4 131 130 145 144
4 114 113 143 130
4 113 112 142 143
4 112 111 141 142
4 111 110 140 141
4 110 109 138 140
4 109 108 139 138
4 106 105 136 137
4 105 104 135 136
4 104 103 134 135
4 103 102 133 134
4 102 101 128 133
4 101 100 129 128
4 58 57 131 132
4 57 56 130 131
4 56 55 114 130
4 99 61 60 115
4 80 79 129 100
4 79 78 128 129
4 78 77 127 128
4 77 76 126 127
4 76 75 125 126
4 75 74 124 125
4 74 73 123 124
4 73 72 122 123
4 72 71 121 122
4 71 70 120 121
4 70 69 118 120
4 69 68 119 118
4 65 64 116 117
4 64 63 115 116
4 63 62 99 115
4 54 98 114 55
4 98 97 113 114
4 97 96 112 113
4 96 95 111 112
4 95 94 110 111
4 94 93 109 110
4 93 92 108 109
4 92 91 107 108
4 91 90 89 107
4 89 88 106 107
4 88 87 105 106
4 87 86 104 105
4 86 85 103 104
4 85 84 102 103
4 84 83 101 102
4 83 82 100 101
4 82 81 80 100
4 4 3 99 62
4 3 2 61 99
4 45 44 98 54
4 44 43 97 98
4 43 42 96 97
4 42 41 95 96
4 41 40 94 95
4 40 39 93 94
4 39 38 92 93
4 38 37 91 92
4 37 36 90 91
4 36 35 89 90
4 35 34 88 89
4 34 33 87 88
4 33 32 86 87
4 32 31 85 86
4 31 30 84 85
4 30 29 83 84
4 29 28 82 83
4 28 27 81 82
4 6 26 81 27
4 26 25 80 81
4 25 24 79 80
4 24 23 78 79
4 23 22 77 78
4 22 21 76 77
4 21 20 75 76
4 20 19 74 75
4 19 18 73 74
4 18 17 72 73
4 17 16 71 72
4 16 15 70 71
4 15 14 69 70
4 14 13 68 69
4 13 12 67 68
4 12 11 66 67
4 11 10 65 66
4 10 9 64 65
4 9 8 63 64
4 8 7 62 63
4 7 1 4 62
4 0 53 61 2
4 53 52 60 61
4 52 51 59 60
4 51 50 58 59
4 50 49 57 58
4 49 48 56 57
4 48 47 55 56
4 47 46 54 55
4 46 5 45 54
CELL_TYPES 155
9
9
9
9
9
9
9
9
9
9
9
9
9
9
9
9
9
9
9
9
9
9
9
9
9
9
9
9
9
9
9
9
9
9
9
9
9
9
9
9
9
9
9
9
9
9
9
9
9
9
9
9
9
9
9
9
9
9
9
9
9
9
9
9
9
9
9
9
9
9
9
9
9
9
9
9
9
9
9
9
9
9
9
9
9
9
9
9
9
9
9
9
9
9
9
9
9
9
9
9
9
9
9
9
9
9
9
9
9
9
9
9
9
9
9
9
9
9
9
9
9
9
9
9
9
9
9
9
9
9
9
9
9
9
9
9
9
9
9
9
9
9
9
9
9
9
9
9
9
9
9
9
9
9
9
POINT_DATA 183
SCALARS fixed int
LOOKUP_TABLE default
1
1
1
1
1
1
1
1
1
1
1
1
1
1
1
1
1
1
1
1
1
1
1
1
1
1
1
1
1
1
1
1
1
1
1
1
1
1
1
1
1
1
1
1
1
1
1
1
1
1
1
1
1
1
0
0
0
0
0
0
0
0
0
0
0
0
0
0
0
0
0
0
0
0
0
0
0
0
0
0
0
0
0
0
0
0
0
0
0
0
0
0
0
0
0
0
0
0
0
0
0
0
0
0
0
0
0
0
0
0
0
0
0
0
0
0
0
0
0
0
0
0
0
0
0
0
0
0
0
0
0
0
0
0
0
0
0
0
0
0
0
0
0
0
0
0
0
0
0
0
0
0
0
0
0
0
0
0
0
0
0
0
0
0
0
0
0
0
0
0
0
0
0
0
0
0
0
0
0
0
0
0
0
SCALARS GLOBAL_ID int 1
LOOKUP_TABLE default
272
273
274
275
276
447
456
504
505
506
507
508
509
510
511
512
513
514
515
516
517
518
519
520
521
522
523
1238
1239
1240
1241
1242
1243
1244
1245
1246
1247
1248
1249
1250
1251
1252
1253
1254
1255
1256
1937
1938
1939
1940
1941
1942
1943
1944
6603
6604
6605
6606
6607
6608
6609
6610
6611
6612
6613
6614
6615
6616
6617
6618
6619
6620
6621
6622
6623
6624
6625
6626
6627
6628
6629
6630
6631
6632
6633
6634
6635
6636
6637
6638
6639
6640
6641
6642
6643
6644
6645
6646
6647
6648
6649
6650
6651
6652
6653
6654
6655
6656
6657
6658
6659
6660
6661
6662
6663
6664
6665
6666
6667
6668
6669
6670
6671
6672
6673
6674
6675
6676
6677
6678
6679
6680
6681
6682
6683
6684
6685
6686
6687
6688
6689
6690
6691
6692
6693
6694
6695
6696
6697
6698
6699
6700
6701
6702
6703
6704
6705
6706
6707
6708
6709
6710
6711
6712
6713
6714
6715
6716
6717
6718
6719
6720
6721
6722
6723
6724
6725
6726
6727
6728
6729
6730
6731
VECTORS debug_vect double
-1.101660365 -12.0766425 14.46375755
-1.99358595 -10 8.00641405
-1.601752597 -11.57865954 12.939397
-1.97639372 -11.06259412 11.34935152
-2.022221735 -10.53435741 9.682140454
-2.387115048 -14.5483575 15.65001786
1.99358595 -10 8.00641405
-1.803720622 -10 8.00641405
-1.613855293 -10 8.00641405
-1.423989965 -10 8.00641405
-1.234124636 -10 8.00641405
-1.044259307 -10 8.00641405
-0.854393979 -10 8.00641405
-0.66452865 -10 8.00641405
-0.474663322 -10 8.00641405
-0.2847979929 -10 8.00641405
-0.0949326643 -10 8.00641405
0.0949326643 -10 8.00641405
0.2847979929 -10 8.00641405
0.474663322 -10 8.00641405
0.66452865 -10 8.00641405
0.854393979 -10 8.00641405
1.044259307 -10 8.00641405
1.234124636 -10 8.00641405
1.423989965 -10 8.00641405
1.613855293 -10 8.00641405
1.803720622 -10 8.00641405
2.018542672 -10.49894326 8.890834287
2.093163701 -10.99290573 9.775254524
2.185615047 -11.47695633 10.65869697
2.218163698 -11.94626293 11.53158053
2.18770432 -12.39614059 12.38000285
2.096024119 -12.82209833 13.19041357
1.946150427 -13.21988394 13.94986943
1.742286739 -13.58552646 14.64624097
1.489727523 -13.91537577 15.26840629
1.194753297 -14.20613912 15.80642862
0.864507904 -14.45491388 16.25171509
0.506860126 -14.65921662 16.59715391
0.130252107 -14.81700786 16.837228
-0.2564627258 -14.92671241 16.96810308
-0.6441893993 -14.98723512 16.98768891
-1.023765791 -14.99797181 16.89567269
-1.386138604 -14.95881531 16.69352402
-1.722537816 -14.8701565 16.38447146
-2.046822867 -14.73288043 16.01734279
-2.357193475 -14.08294354 15.28228076
-2.216255778 -13.61292159 14.91454366
-1.966307206 -13.16440411 14.54680656
-1.615409198 -12.76230888 14.17906947
-1.416760586 -12.42897464 14.04438384
-1.382402453 -12.18292006 14.14922727
-1.301622072 -12.03781492 14.25407069
-1.199337219 -12.00172065 14.35891412
-1.971255856 -14.16325084 15.45390574
-1.842662594 -13.61806144 14.91316119
-1.658377316 -13.07229214 14.35892482
-1.456226954 -12.57925934 13.81440963
-1.384888038 -12.15026222 13.28814852
-1.341004635 -11.67169636 12.46945879
-1.38602969 -11.56768841 12.64949576
-1.494657256 -11.54598994 12.78191346
-1.825284195 -10.52647816 9.584026436
-1.629674179 -10.52834594 9.499738974
-1.446463748 -10.5210358 9.376411358
-1.260033829 -10.49728084 9.261785176
-1.057326347 -10.45827483 9.17233194
-0.859005464 -10.5088672 9.190903636
-0.674996044 -10.50705806 9.128785699
-0.482791168 -10.48987499 9.065289174
-0.2846013421 -10.47909514 9.021745765
-0.0839977454 -10.47462853 8.990354099
0.1211474153 -10.47488371 8.975299084
0.3201611963 -10.47568125 8.949287334
0.516848576 -10.47492372 8.918430309
0.721006893 -10.46248281 8.876416698
0.916844575 -10.44522943 8.825781199
1.115127238 -10.43543165 8.791684927
1.297246397 -10.43197591 8.76720288
1.485250211 -10.37769967 8.677103541
1.664377289 -10.40087623 8.703730682
1.844880137 -10.44632564 8.782318147
1.876409339 -10.88460319 9.554990796
1.883047328 -11.31544934 10.33399351
1.880563309 -11.74761156 11.1427238
1.811508716 -12.16076637 11.91638086
1.707529908 -12.56173543 12.67955415
1.535780604 -12.93415321 13.39914477
1.35439432 -13.30093445 14.11794742
1.18330257 -13.67942779 14.84041377
1.060328827 -13.97201461 15.37509063
0.818211247 -14.03726021 15.49027636
0.513256272 -14.16048667 15.69592305
0.175830811 -14.28083733 15.88984569
-0.1733914972 -14.36648325 16.00457464
-0.5256850875 -14.40706257 16.03135754
-0.8781630461 -14.3990579 15.96274787
-1.229787441 -14.34307861 15.81224701
-1.584619419 -14.25453028 15.6222355
-1.764476741 -11.04684499 11.16124208
1.681600173 -10.78281254 9.367301203
1.631393085 -11.14475638 10.02322494
1.59524703 -11.54574819 10.77232807
1.527773589 -11.93505644 11.49086378
1.398426831 -12.28787876 12.15232258
1.210907293 -12.63930589 12.83334314
0.959443348 -13.04426191 13.64927768
0.865177663 -13.60448224 14.70816582
0.5443445 -13.68103439 14.83829802
0.22529306 -13.76678367 14.97790172
-0.0949235013 -13.8356794 15.09091837
-0.4166038134 -13.85857776 15.12059724
-0.7404428207 -13.83271706 15.06861274
-1.068323137 -13.75987968 14.95547045
-1.431584974 -13.65632992 14.85127439
-1.575157354 -11.04446808 10.9390162
-1.420281165 -11.05242238 10.66328514
-1.252171827 -10.96861181 10.29214306
-0.5113778459 -10.97405627 10.07757592
-0.725612049 -11.02695181 10.24789123
-0.2958202752 -10.95295009 9.992195568
-0.07816684357 -10.94646742 9.946027335
0.1313255349 -10.94829275 9.904636596
0.338130405 -10.95190857 9.863188867
0.539749498 -10.95329511 9.813064816
0.74038395 -10.92309312 9.718615411
0.948918356 -10.88354923 9.626839337
1.158394547 -10.86335476 9.581807337
1.385827407 -10.90871239 9.62524819
1.517559263 -10.68974154 9.223217645
-1.170162822 -12.96117515 13.8756269
-1.159880236 -12.37197331 13.12078791
-1.199539589 -11.90494353 12.38861457
1.370689701 -11.35633644 10.46081157
1.30375254 -11.71607482 11.09890609
1.159706846 -11.99189129 11.59937656
0.981242506 -12.25790479 12.11920415
0.774448069 -12.50096142 12.64041388
0.269602224 -13.27335561 14.10096735
0.580399082 -13.1833454 13.92711735
-0.0263679718 -13.31942648 14.19873243
-0.3104309556 -13.3341968 14.23604185
-0.5862589267 -13.28511929 14.17774501
-0.86493474 -13.18192799 14.0606693
-0.939216533 -12.12574247 12.405653
-0.821895808 -12.49983759 12.9393279
-0.98058067 -11.67441402 11.65471337
-0.5231503329 -11.44721455 11.02797497
-0.753227128 -11.51989853 11.23101857
-0.3029602976 -11.41434235 10.90461758
-0.08856818959 -11.41402599 10.84624489
0.124482721 -11.42009101 10.80143043
0.338171742 -11.43149042 10.76580264
0.549254545 -11.44279488 10.71205751
0.756357237 -11.38232841 10.54844014
0.955568828 -11.3056864 10.39155383
1.157528374 -11.2634588 10.31889618
1.143588975 -11.55467004 10.8228812
0.995048194 -11.68135255 11.0485331
0.80901713 -11.83806504 11.37162661
0.576419299 -11.99865841 11.78338588
0.270972399 -12.79806414 13.24898171
0.539176765 -12.71860968 13.07662809
0.0183629354 -12.8351657 13.35876822
-0.2145402794 -12.83214144 13.38496782
-0.4374337489 -12.77704912 13.32537589
-0.641362658 -12.68118599 13.20802139
-0.308009167 -11.8670443 11.7547084
-0.5085260055 -11.87566208 11.82592899
-0.1090889628 -11.88059125 11.71941172
0.0972655958 -11.89686683 11.69595838
0.313808267 -11.92144081 11.69518967
-0.3415977499 -12.31801038 12.5486701
-0.5136179945 -12.26960076 12.51381716
0.0350725852 -12.36538987 12.53338596
0.246809437 -12.36433083 12.48270954
-0.1529962449 -12.3502522 12.55408894
-1.174105366 -11.41023419 11.34052539
-0.905011178 -11.08666444 10.50683645
-0.6703653777 -12.23116167 12.46774392
-0.728201954 -11.93790301 11.97976972
0.446631713 -12.36053297 12.44773276
-1.071718475 -10.83785036 9.993339375
FIELD reference 1
coords 3 183 double
4.548357496 -2.076642504 0
5 0 0
4.7442422 -1.578659542 0
4.885784864 -1.062594118 0
4.971364215 -0.5343574079 0
2.076642504 -4.548357496 0
-5 0 0
4.523809524 0 0
4.047619048 0 0
3.571428571 0 0
3.095238095 0 0
2.619047619 0 0
2.142857143 0 0
1.666666667 0 0
1.19047619 0 0
0.7142857143 0 0
0.2380952381 0 0
-0.2380952381 0 0
-0.7142857143 0 0
-1.19047619 0 0
-1.666666667 0 0
-2.142857143 0 0
-2.619047619 0 0
-3.095238095 0 0
-3.571428571 0 0
-4.047619048 0 0
-4.523809524 0 0
-4.975043278 -0.4989432616 0
-4.900422249 -0.9929057279 0
-4.776881829 -1.476956326 0
-4.605655286 -1.946262928 0
-4.38845192 -2.396140594 0
-4.127440005 -2.822098334 0
-3.825225141 -3.219883945 0
-3.484824246 -3.585526457 0
-3.109635435 -3.915375775 0
-2.703404102 -4.206139116 0
-2.270185528 -4.454913879 0
-1.814304398 -4.659216624 0
-1.340311632 -4.817007861 0
-0.8529389525 -4.926712407 0
-0.3570516491 -4.987235118 0
0.1423999898 -4.997971813 0
0.640430094 -4.958815312 0
1.132066984 -4.870156501 0
1.612402802 -4.732880434 0
2.001720648 -4.082943543 0
2.037814916 -3.612921591 0
2.182920059 -3.164404111 0
2.428974638 -2.762308879 0
2.762308879 -2.428974638 0
3.164404111 -2.182920059 0
3.612921591 -2.037814916 0
4.082943543 -2.001720648 0
1.603116543 -4.163250841 0
1.651483575 -3.618061437 0
1.811064376 -3.072292141 0
2.111173131 -2.579259344 0
2.470075554 -2.15026222 0
2.999756801 -1.671696363 0
3.64712088 -1.567688409 0
4.194299084 -1.545989941 0
4.44022786 -0.5264781621 0
3.928832555 -0.528345936 0
3.433756865 -0.5210358013 0
2.954983509 -0.4972808405 0
2.513798764 -0.4582748263 0
2.059755301 -0.5088671973 0
1.573760709 -0.5070580647 0
1.092435235 -0.4898749867 0
0.6123251912 -0.4790951419 0
0.1365233193 -0.4746285255 0
-0.3401636807 -0.4748837137 0
-0.8161705057 -0.4756812512 0
-1.292257531 -0.4749237194 0
-1.766534192 -0.4624828139 0
-2.238023301 -0.4452294306 0
-2.709829172 -0.4354316521 0
-3.185376513 -0.431975907 0
-3.611263681 -0.377699674 0
-4.028584268 -0.4008762288 0
-4.490680433 -0.4463256387 0
-4.409958426 -0.8846031889 0
-4.279612493 -1.315449341 0
-4.116985828 -1.747611564 0
-3.898886322 -2.160766368 0
-3.637466549 -2.561735432 0
-3.31718822 -2.934153212 0
-2.983074573 -3.300934448 0
-2.705482611 -3.67942779 0
-2.532871988 -3.972014614 0
-2.199501097 -4.037260215 0
-1.767523943 -4.160486667 0
-1.298060289 -4.280837325 0
-0.8137125256 -4.366483246 0
-0.3203792777 -4.407062565 0
0.1766490939 -4.399057896 0
0.6703385569 -4.343078606 0
1.149000213 -4.254530276 0
4.326217548 -1.046844989 0
-3.975144156 -0.7828125414 0
-3.813671307 -1.144756378 0
-3.655034275 -1.545748195 0
-3.461457719 -1.935056437 0
-3.186916249 -2.287878759 0
-2.838442971 -2.639305893 0
-2.36500726 -3.044261909 0
-2.249689525 -3.604482244 0
-1.754743789 -3.681034389 0
-1.264703132 -3.766783672 0
-0.78116435 -3.835679399 0
-0.2848835499 -3.858577763 0
0.2150920895 -3.832717058 0
0.7059194179 -3.759879685 0
1.201301031 -3.656329915 0
3.798868007 -1.044468079 0
3.267910998 -1.052422383 0
2.799826379 -0.9686118124 0
0.9768786031 -0.9740562687 0
1.462102985 -1.026951814 0
0.5038249643 -0.9529500898 0
0.03262315083 -0.9464674182 0
-0.441418888 -0.9482927514 0
-0.918954203 -0.9519085707 0
-1.398740943 -0.9532951077 0
-1.870640854 -0.9230931227 0
-2.332956504 -0.8835492345 0
-2.794144954 -0.8633547582 0
-3.328648086 -0.9087123944 0
-3.638351975 -0.6897415366 0
1.334727481 -2.961175147 0
1.756740335 -2.371973315 0
2.095358203 -1.904943533 0
-3.223655428 -1.356336444 0
-3.082970607 -1.716074821 0
-2.816319697 -1.991891291 0
-2.455954061 -2.257904795 0
-2.014684804 -2.500961418 0
-1.226176681 -3.273355607 0
-1.72450932 -3.183345397 0
-0.7364472472 -3.319426478 0
-0.248940638 -3.334196804 0
0.2429664832 -3.285119289 0
0.750596051 -3.181927993 0
1.427540758 -2.125742471 0
1.128063286 -2.499837586 0
1.697484549 -1.674414023 0
0.8381123611 -1.44721455 0
1.272229217 -1.519898528 0
0.3968508468 -1.414342348 0
-0.06293044378 -1.414025985 0
-0.5335115552 -1.420091012 0
-1.012663855 -1.431490416 0
-1.513858744 -1.44279488 0
-1.985610127 -1.382328407 0
-2.428115459 -1.3056864 0
-2.824549773 -1.263458804 0
-2.818856484 -1.55467004 0
-2.550744654 -1.681352548 0
-2.163608771 -1.838065041 0
-1.659603592 -1.998658415 0
-1.147688983 -2.798064136 0
-1.592577745 -2.718609681 0
-0.6900389841 -2.835165704 0
-0.2206574627 -2.832141444 0
0.2501079566 -2.777049117 0
0.709973196 -2.681185988 0
0.3060797864 -1.867044304 0
0.7213925615 -1.87566208 0
-0.1397312718 -1.880591249 0
-0.6037755313 -1.896866828 0
-1.094190094 -1.921440812 0
0.2556511948 -2.318010377 0
0.6587459145 -2.26960076 0
-0.6440865685 -2.365389871 0
-1.084652765 -2.36433083 0
-0.1892815594 -2.350252202 0
2.483788206 -1.410234192 0
2.03758595 -1.086664441 0
0.9653415273 -2.231161671 0
1.095216806 -1.937903014 0
-1.445611368 -2.360532975 0
2.450403698 -0.8378503598 0

CELL_DATA 155
FIELD Average 2
Shape_init 1 155 double
0.543032387
0.7799720774
0.6766265225
0.04912363662
0.05287849784
0.1064268311
0.1046787297
0.07500419216
2.87354267
5.095549785
0.791385022
0.3444782723
0.1703816062
0.1865201175
0.1504214804
0.06567845129
0.1596821083
0.1241576516
0.1404068723
0.1824459689
0.9042066239
3.105378008
1.382574202
0.1986508404
0.1297966596
0.09449362978
0.05393088954
0.1536062812
0.1416903674
0.281083831
0.2931825746
0.2613122865
0.2514529384
0.2532287243
0.2300115821
0.5022818556
0.2258789427
0.1274295781
0.08888324203
0.0797341163
0.06852765504
0.1663622495
0.1036646475
0.03864846997
0.0346463219
0.147725779
0.1293686892
0.158004893
0.2067482341
0.2620706227
0.2646960913
0.283296978
0.3088742282
0.3712636565
0.4503715091
1.095244429
1.066108017
0.5055877529
0.1820389487
0.09186011693
0.06021290961
0.05116408062
0.05172526324
0.177619309
0.1166360889
0.07465182135
0.07455175144
0.1361661778
0.0935797477
2.075451334
2.168498581
1.552575608
4.405820393
0.09222983524
0.1057314317
0.1905254414
0.1657765542
0.171761017
0.2043477929
0.2660285823
0.3045537742
0.3490879713
0.3987832248
0.4741315906
0.6060131241
1.167822938
2.139628731
2.684526637
0.8152428284
0.2881573583
0.1089751909
0.05041312612
0.03093204291
0.02369831897
0.02167533299
0.02064762554
0.01179004365
0.05033689739
0.1139387222
0.09676777797
0.101852956
0.09765322724
0.1412992378
0.1408409561
0.1434006774
3.112949548
3.777103107
0.5442488741
0.2160831681
0.08538968835
0.03586429036
0.01688270269
0.008725126223
0.00837504637
0.009082863384
0.00774279179
0.008097772648
0.02539699947
0.05645200879
0.07440532728
0.1034037641
0.1234540318
0.179862576
0.2277260884
0.2194678094
0.1607951627
0.1407741036
0.1352433329
0.1275799273
0.1600254347
0.1757397348
0.2105362156
0.2415435303
0.3080026258
0.3754997983
0.4222616754
0.4890104279
0.5614135486
0.6486757109
0.8235664498
1.149468177
1.251075128
1.493880489
1.952714424
2.418060663
2.889060257
5.55249615
6.570627982
6.432032902
3.93554358
1.667169087
1.525243864
1.509460654
1.358087342
1.012196451
Shape 1 155 double
0.8437407782
1.257718593
0.811426161
0.0357001874
0.05797110927
0.07266561969
0.08305934508
0.06343312691
3.583235789
5.408830469
1.325713331
0.5033281036
0.09220271999
0.2674263103
0.2224303974
0.1111809033
0.1337996794
0.1306719825
0.1094864752
0.1381157463
1.082274279
3.586855468
2.06018171
0.1149668223
0.08060944177
0.05619751227
0.03686951812
0.142812546
0.08303122252
0.1560990749
0.1537558276
0.1485052354
0.1652778437
0.1935813722
0.2244379762
0.4583191467
0.1770408239
0.09426107773
0.05914496529
0.04589567049
0.04333765827
0.1134507095
0.06623600065
0.03084681732
0.04017182274
0.1315644593
0.09334736593
0.1188215326
0.1504671158
0.1688377439
0.1818744304
0.2141084576
0.26460474
0.3539714568
0.5590310768
1.053689587
0.9334906453
0.5226506192
0.1471178454
0.0590578211
0.03352447924
0.02819348234
0.03222213367
0.123921292
0.08165635861
0.06288815494
0.07594625832
0.1293378544
0.09127010452
1.837454201
1.765033658
1.239271865
4.089396837
0.07825243228
0.1042687228
0.1605781558
0.138980176
0.154044962
0.176673265
0.1976874769
0.2230041124
0.2640942324
0.3237443076
0.4192033638
0.5961939808
1.92464704
2.823408426
2.810871874
0.5611026637
0.2296636292
0.06276269476
0.02098623679
0.01145847176
0.01210662137
0.01557530699
0.02037788427
0.01337723161
0.05058466312
0.09559130909
0.08446613763
0.08746381496
0.1050930683
0.1416817959
0.1449371424
0.1408650694
2.684013392
3.152009524
0.3953759283
0.1406722006
0.03408675434
0.006875482876
0.002858552653
0.005601017809
0.009679871607
0.01263598801
0.01093040924
0.01465093929
0.03274017207
0.05720259243
0.07885347792
0.104561386
0.1362469377
0.1832522735
0.2472793695
0.2401022815
0.1833292199
0.1627489707
0.1504714787
0.1597186486
0.1746349047
0.1754892841
0.1867205119
0.2039935017
0.2281860644
0.2619179486
0.3078753498
0.365017318
0.4380418205
0.5409142866
0.7743680794
0.9669611244
1.185657905
1.701009002
2.191338537
2.488969808
2.759827053
4.758885273
5.352620227
5.653803115
4.030654789
2.171331833
2.008166488
1.44112792
0.9893419043
0.7827152557
SCALARS GLOBAL_ID int 1
LOOKUP_TABLE default
2200
2199
2198
2197
2196
2195
2194
2193
2192
2191
2190
2189
2188
2187
2186
2185
2184
2183
2182
2181
2180
2179
2178
2177
2176
2175
2174
2173
2172
2171
2170
2169
2168
2167
2166
2165
2164
2163
2162
2161
2160
2159
2158
2157
2156
2155
2154
2153
2152
2151
2150
2149
2148
2147
2146
2145
2144
2143
2142
2141
2140
2139
2138
2137
2136
2135
2134
2133
2132
2131
2130
2129
2128
2127
2126
2125
2124
2123
2122
2121
2120
2119
2118
2117
2116
2115
2114
2113
2112
2111
2110
2109
2108
2107
2106
2105
2104
2103
2102
2101
2100
2099
2098
2097
2096
2095
2094
2093
2092
2091
2090
2089
2088
2087
2086
2085
2084
2083
2082
2081
2080
2079
2078
2077
2076
2075
2074
2073
2072
2071
2070
2069
2068
2067
2066
2065
2064
2063
2062
2061
2060
2059
2058
2057
2056
2055
2054
2053
2052
2051
2050
2049
2048
2047
2046
SCALARS InverseMeanRatio double 1
LOOKUP_TABLE default
1.184664937
1.146459475
1.301568654
1.032119108
1.171048167
1.081699726
1.050821894
1.061394069
1.48374102
1.51511848
1.18165813
1.080608113
1.01222565
1.025163713
1.128595807
1.051691672
1.018808008
1.072391115
1.012909953
1.017067263
1.222875014
1.375899381
1.372133262
1.015176225
1.011459297
1.009347532
1.067265885
1.019537113
1.026022016
1.045811509
1.050815773
1.023941813
1.021847023
1.021462404
1.021675808
1.063246833
1.015975637
1.009681776
1.008745846
1.008216369
1.008840227
1.020640595
1.026459663
1.073826475
1.082259895
1.031289747
1.015012219
1.018831501
1.029572136
1.032827742
1.02913463
1.027544296
1.028679538
1.039300604
1.066654645
1.135335149
1.147290646
1.003214579
1.004958636
1.005392583
1.007001729
1.010367902
1.016345623
1.038796642
1.013766305
1.014296597
1.025098271
1.054102428
1.096767927
1.195915562
1.173800234
1.164213534
1.392677144
1.042244083
1.129762428
1.05134025
1.021719298
1.025476384
1.034537882
1.039984709
1.038326484
1.03861209
1.042442692
1.053710106
1.096924348
1.289993683
1.330699925
1.303929261
1.041083722
1.008343338
1.006136883
1.004322049
1.006824237
1.015539907
1.023898033
1.046495817
1.124223942
1.052658973
1.029693485
1.006651111
1.00896452
1.014152114
1.024601182
1.018588848
1.021501934
1.246297969
1.297237866
1.075592363
1.032185449
1.01674599
1.011019324
1.012293581
1.019628162
1.030621839
1.038555738
1.09026339
1.0958289
1.022068814
1.016490832
1.011551582
1.010060731
1.016935558
1.028973163
1.041880404
1.044835815
1.036793301
1.015562775
1.012677716
1.019920835
1.030248302
1.030300606
1.034277191
1.041799699
1.047071457
1.048753236
1.051027404
1.057153009
1.070225215
1.100506793
1.151091625
1.160284382
1.18901768
1.278807311
1.339985093
1.354904031
1.361014532
1.793972755
1.735603883
1.888377267
1.867666613
1.78076166
1.710152995
1.25893542
1.142530089
1.199694277
SCALARS InverseMeanRatio_init double 1
LOOKUP_TABLE default
1.1337068
1.124536184
1.30190792
1.034279123
1.157103218
1.091813349
1.052016959
1.072413902
1.376655882
1.449400668
1.100977245
1.05359868
1.024017833
1.02448964
1.096500398
1.06622287
1.027349174
1.076350797
1.022479758
1.030209946
1.168695363
1.233945761
1.214703741
1.030611753
1.024236751
1.015602238
1.076905157
1.031029483
1.034427046
1.062553539
1.055420349
1.036436644
1.036104394
1.037001467
1.034553827
1.0681537
1.025288075
1.015879774
1.015091676
1.01347716
1.011707533
1.014383458
1.025197335
1.074186778
1.072497733
1.028003776
1.017702946
1.020654612
1.031304602
1.035941133
1.037901799
1.038817396
1.042046729
1.05217214
1.061406924
1.126753725
1.140685975
1.004385415
1.006477712
1.008478871
1.011731837
1.016233787
1.023651163
1.041663911
1.015305447
1.016234994
1.020940793
1.044840276
1.094471465
1.194598681
1.20045068
1.18924466
1.417302234
1.039895964
1.134416627
1.047779643
1.02175884
1.024102303
1.035052023
1.047776805
1.051953265
1.057667483
1.062782301
1.070477163
1.101486375
1.178617404
1.243797621
1.291218426
1.067803675
1.004543008
1.002206714
1.003625089
1.009671931
1.020411879
1.028905722
1.048751727
1.126258524
1.052281101
1.02702456
1.005583194
1.010312658
1.013313739
1.023587357
1.018059744
1.02218366
1.309710397
1.366140713
1.070493292
1.01621625
1.004764439
1.004532553
1.010467899
1.020130457
1.032607573
1.039159619
1.090833097
1.095790487
1.024864721
1.021212307
1.016459798
1.01443696
1.018461626
1.030316793
1.040308261
1.041088601
1.033329559
1.014046718
1.01434277
1.018514616
1.032829147
1.036123125
1.044205207
1.054378653
1.066375754
1.074791253
1.079331391
1.08678264
1.099806655
1.123817905
1.154847185
1.178028242
1.197536235
1.24206317
1.301455073
1.343895952
1.384740174
1.865257078
1.840833053
1.915708424
1.844119783
1.63708904
1.35162734
1.206488485
1.182545878
1.220779944
SCALARS Inverted int 1
LOOKUP_TABLE default
0
0
0
0
0
0
0
0
0
0
0
0
0
0
0
0
0
0
0
0
0
0
0
0
0
0
0
0
0
0
0
0
0
0
0
0
0
0
0
0
0
0
0
0
0
0
0
0
0
0
0
0
0
0
0
0
0
0
0
0
0
0
0
0
0
0
0
0
0
0
0
0
0
0
0
0
0
0
0
0
0
0
0
0
0
0
0
0
0
0
0
0
0
0
0
0
0
0
0
0
0
0
0
0
0
0
0
0
0
0
0
0
0
0
0
0
0
0
0