# vtk DataFile Version 3.0
MOAB 3.99 (Alpha)
ASCII
DATASET UNSTRUCTURED_GRID
POINTS 183 double
4.548357496 -2.076642504 0
2.076642504 -4.548357496 0
4.082943543 -2.001720648 0
3.612921591 -2.037814916 0
3.164404111 -2.182920059 0
2.762308879 -2.428974638 0
2.428974638 -2.762308879 0
2.182920059 -3.164404111 0
2.037814916 -3.612921591 0
2.001720648 -4.082943543 0
5 0 0
4.971364215 -0.5343574079 0
4.885784864 -1.062594118 0
4.7442422 -1.578659542 0
-5 0 0
-4.523809524 0 0
-4.047619048 0 0
-3.571428571 0 0
-3.095238095 0 0
-2.619047619 0 0
-2.142857143 0 0
-1.666666667 0 0
-1.19047619 0 0
-0.7142857143 0 0
-0.2380952381 0 0
0.2380952381 0 0
0.7142857143 0 0
1.19047619 0 0
1.666666667 0 0
2.142857143 0 0
2.619047619 0 0
3.095238095 0 0
3.571428571 0 0
4.047619048 0 0
4.523809524 0 0
1.612402802 -4.732880434 0
1.132066984 -4.870156501 0
0.640430094 -4.958815312 0
0.1423999898 -4.997971813 0
-0.3570516491 -4.987235118 0
-0.8529389525 -4.926712407 0
-1.340311632 -4.817007861 0
-1.814304398 -4.659216624 0
-2.270185528 -4.454913879 0
-2.703404102 -4.206139116 0
-3.109635435 -3.915375775 0
-3.484824246 -3.585526457 0
-3.825225141 -3.219883945 0
-4.127440005 -2.822098334 0
-4.38845192 -2.396140594 0
-4.605655286 -1.946262928 0
-4.776881829 -1.476956326 0
-4.900422249 -0.9929057279 0
-4.975043278 -0.4989432616 0
1.603116543 -4.163250841 0
1.651483575 -3.618061437 0
1.811064376 -3.072292141 0
2.111173131 -2.579259344 0
2.470075554 -2.15026222 0
2.999756801 -1.671696363 0
3.64712088 -1.567688409 0
4.194299084 -1.545989941 0
4.44022786 -0.5264781621 0
3.928832555 -0.528345936 0
3.433756865 -0.5210358013 0
2.954983509 -0.4972808405 0
2.513798764 -0.4582748263 0
2.059755301 -0.5088671973 0
1.573760709 -0.5070580647 0
1.092435235 -0.4898749867 0
0.6123251912 -0.4790951419 0
0.1365233193 -0.4746285255 0
-0.3401636807 -0.4748837137 0
-0.8161705057 -0.4756812512 0
-1.292257531 -0.4749237194 0
-1.766534192 -0.4624828139 0
-2.238023301 -0.4452294306 0
-2.709829172 -0.4354316521 0
-3.185376513 -0.431975907 0
-3.611263681 -0.377699674 0
-4.028584268 -0.4008762288 0
-4.490680433 -0.4463256387 0
-4.409958426 -0.8846031889 0
-4.279612493 -1.315449341 0
-4.116985828 -1.747611564 0
-3.898886322 -2.160766368 0
-3.637466549 -2.561735432 0
-3.31718822 -2.934153212 0
-2.983074573 -3.300934448 0
-2.705482611 -3.67942779 0
-2.532871988 -3.972014614 0
-2.199501097 -4.037260215 0
-1.767523943 -4.160486667 0
-1.298060289 -4.280837325 0
-0.8137125256 -4.366483246 0
-0.3203792777 -4.407062565 0
0.1766490939 -4.399057896 0
0.6703385569 -4.343078606 0
1.149000213 -4.254530276 0
4.326217548 -1.046844989 0
-3.975144156 -0.7828125414 0
-3.813671307 -1.144756378 0
-3.655034275 -1.545748195 0
-3.461457719 -1.935056437 0
-3.186916249 -2.287878759 0
-2.838442971 -2.639305893 0
-2.36500726 -3.044261909 0
-2.249689525 -3.604482244 0
-1.754743789 -3.681034389 0
-1.264703132 -3.766783672 0
-0.78116435 -3.835679399 0
-0.2848835499 -3.858577763 0
0.2150920895 -3.832717058 0
0.7059194179 -3.759879685 0
1.201301031 -3.656329915 0
3.798868007 -1.044468079 0
3.267910998 -1.052422383 0
1.462102985 -1.026951814 0
0.9768786031 -0.9740562687 0
0.5038249643 -0.9529500898 0
0.03262315083 -0.9464674182 0
-0.441418888 -0.9482927514 0
-0.918954203 -0.9519085707 0
-1.398740943 -0.9532951077 0
-1.870640854 -0.9230931227 0
-2.332956504 -0.8835492345 0
-2.794144954 -0.8633547582 0
-3.328648086 -0.9087123944 0
-3.638351975 -0.6897415366 0
1.334727481 -2.961175147 0
1.756740335 -2.371973315 0
2.483788206 -1.410234192 0
2.799826379 -0.9686118124 0
-3.223655428 -1.356336444 0
-3.082970607 -1.716074821 0
-2.816319697 -1.991891291 0
-2.455954061 -2.257904795 0
-2.014684804 -2.500961418 0
-1.592577745 -2.718609681 0
-1.72450932 -3.183345397 0
-1.226176681 -3.273355607 0
-0.7364472472 -3.319426478 0
-0.248940638 -3.334196804 0
0.2429664832 -3.285119289 0
0.750596051 -3.181927993 0
1.128063286 -2.499837586 0
1.427540758 -2.125742471 0
0.8381123611 -1.44721455 0
0.3968508468 -1.414342348 0
-0.06293044378 -1.414025985 0
-0.5335115552 -1.420091012 0
-1.012663855 -1.431490416 0
-1.513858744 -1.44279488 0
-1.985610127 -1.382328407 0
-2.428115459 -1.3056864 0
-2.824549773 -1.263458804 0
-2.818856484 -1.55467004 0
-1.147688983 -2.798064136 0
-0.6900389841 -2.835165704 0
-0.2206574627 -2.832141444 0
0.2501079566 -2.777049117 0
0.709973196 -2.681185988 0
1.095216806 -1.937903014 0
0.3060797864 -1.867044304 0
-0.6037755313 -1.896866828 0
-0.6440865685 -2.365389871 0
-1.659603592 -1.998658415 0
-2.163608771 -1.838065041 0
-2.550744654 -1.681352548 0
-0.1892815594 -2.350252202 0
-0.1397312718 -1.880591249 0
2.095358203 -1.904943533 0
2.03758595 -1.086664441 0
0.2556511948 -2.318010377 0
0.6587459145 -2.26960076 0
0.9653415273 -2.231161671 0
0.7213925615 -1.87566208 0
-1.094190094 -1.921440812 0
-1.084652765 -2.36433083 0
1.272229217 -1.519898528 0
1.697484549 -1.674414023 0
-1.445611368 -2.360532975 0
2.450403698 -0.8378503598 0
CELLS 155 775
4 65 66 182 132
4 182 172 131 132
4 66 67 172 182
4 157 178 181 138
4 181 166 137 138
4 178 177 166 181
4 139 138 137 106
4 108 139 106 107
4 116 132 131 59
4 115 116 59 60
4 179 180 172 117
4 162 146 180 179
4 165 164 177 178
4 162 179 147 176
4 175 145 146 162
4 174 175 162 176
4 173 160 161 174
4 161 145 175 174
4 159 160 173 169
4 173 163 170 169
4 117 172 67 68
4 171 58 59 131
4 180 171 131 172
4 170 164 165 169
4 158 159 169 165
4 157 158 165 178
4 155 156 168 154
4 176 163 173 174
4 153 154 168 167
4 152 153 167 166
4 151 152 166 177
4 150 151 177 164
4 149 150 164 170
4 148 149 170 163
4 147 148 163 176
4 144 129 145 161
4 143 144 161 160
4 142 143 160 159
4 141 142 159 158
4 140 141 158 157
4 139 140 157 138
4 136 137 166 167
4 135 136 167 168
4 134 135 168 156
4 133 134 156 155
4 126 127 133 155
4 125 126 155 154
4 124 125 154 153
4 123 124 153 152
4 122 123 152 151
4 121 122 151 150
4 120 121 150 149
4 119 120 149 148
4 118 119 148 147
4 117 118 147 179
4 130 171 180 146
4 129 130 146 145
4 113 114 129 144
4 112 113 144 143
4 111 112 143 142
4 110 111 142 141
4 109 110 141 140
4 108 109 140 139
4 105 106 137 136
4 104 105 136 135
4 103 104 135 134
4 102 103 134 133
4 101 102 133 127
4 100 101 127 128
4 57 58 171 130
4 56 57 130 129
4 55 56 129 114
4 61 99 115 60
4 79 80 100 128
4 78 79 128 127
4 77 78 127 126
4 76 77 126 125
4 75 76 125 124
4 74 75 124 123
4 73 74 123 122
4 72 73 122 121
4 71 72 121 120
4 70 71 120 119
4 69 70 119 118
4 68 69 118 117
4 64 65 132 116
4 63 64 116 115
4 62 63 115 99
4 98 54 55 114
4 97 98 114 113
4 96 97 113 112
4 95 96 112 111
4 94 95 111 110
4 93 94 110 109
4 92 93 109 108
4 91 92 108 107
4 90 91 107 89
4 88 89 107 106
4 87 88 106 105
4 86 87 105 104
4 85 86 104 103
4 84 85 103 102
4 83 84 102 101
4 82 83 101 100
4 81 82 100 80
4 12 11 62 99
4 13 12 99 61
4 36 35 54 98
4 37 36 98 97
4 38 37 97 96
4 39 38 96 95
4 40 39 95 94
4 41 40 94 93
4 42 41 93 92
4 43 42 92 91
4 44 43 91 90
4 45 44 90 89
4 46 45 89 88
4 47 46 88 87
4 48 47 87 86
4 49 48 86 85
4 50 49 85 84
4 51 50 84 83
4 52 51 83 82
4 53 52 82 81
4 15 14 53 81
4 16 15 81 80
4 17 16 80 79
4 18 17 79 78
4 19 18 78 77
4 20 19 77 76
4 21 20 76 75
4 22 21 75 74
4 23 22 74 73
4 24 23 73 72
4 25 24 72 71
4 26 25 71 70
4 27 26 70 69
4 28 27 69 68
4 29 28 68 67
4 30 29 67 66
4 31 30 66 65
4 32 31 65 64
4 33 32 64 63
4 34 33 63 62
4 10 34 62 11
4 2 0 13 61
4 3 2 61 60
4 4 3 60 59
4 5 4 59 58
4 6 5 58 57
4 7 6 57 56
4 8 7 56 55
4 9 8 55 54
4 1 9 54 35
CELL_TYPES 155
9
9
9
9
9
9
9
9
9
9
9
9
9
9
9
9
9
9
9
9
9
9
9
9
9
9
9
9
9
9
9
9
9
9
9
9
9
9
9
9
9
9
9
9
9
9
9
9
9
9
9
9
9
9
9
9
9
9
9
9
9
9
9
9
9
9
9
9
9
9
9
9
9
9
9
9
9
9
9
9
9
9
9
9
9
9
9
9
9
9
9
9
9
9
9
9
9
9
9
9
9
9
9
9
9
9
9
9
9
9
9
9
9
9
9
9
9
9
9
9
9
9
9
9
9
9
9
9
9
9
9
9
9
9
9
9
9
9
9
9
9
9
9
9
9
9
9
9
9
9
9
9
9
9
9
POINT_DATA 183
SCALARS GLOBAL_ID int 1
LOOKUP_TABLE default
1 
2 
3 
4 
5 
6 
7 
8 
9 
10 
11 
12 
13 
14 
15 
16 
17 
18 
19 
20 
21 
22 
23 
24 
25 
26 
27 
28 
29 
30 
31 
32 
33 
34 
35 
36 
37 
38 
39 
40 
41 
42 
43 
44 
45 
46 
47 
48 
49 
50 
51 
52 
53 
54 
55 
56 
57 
58 
59 
60 
61 
62 
63 
64 
65 
66 
67 
68 
69 
70 
71 
72 
73 
74 
75 
76 
77 
78 
79 
80 
81 
82 
83 
84 
85 
86 
87 
88 
89 
90 
91 
92 
93 
94 
95 
96 
97 
98 
99 
100 
101 
102 
103 
104 
105 
106 
107 
108 
109 
110 
111 
112 
113 
114 
115 
116 
117 
118 
119 
120 
121 
122 
123 
124 
125 
126 
127 
128 
129 
130 
131 
132 
133 
134 
135 
136 
137 
138 
139 
140 
141 
142 
143 
144 
145 
146 
147 
148 
149 
150 
151 
152 
153 
154 
155 
156 
157 
158 
159 
160 
161 
162 
163 
164 
165 
166 
167 
168 
169 
170 
171 
172 
173 
174 
175 
176 
177 
178 
179 
180 
181 
182 
183 
CELL_DATA 155
SCALARS GLOBAL_ID int 1
LOOKUP_TABLE default
155 
154 
153 
152 
151 
150 
149 
148 
147 
146 
145 
144 
143 
142 
141 
140 
139 
138 
137 
136 
135 
134 
133 
132 
131 
130 
129 
128 
127 
126 
125 
124 
123 
122 
121 
120 
119 
118 
117 
116 
115 
114 
113 
112 
111 
110 
109 
108 
107 
106 
105 
104 
103 
102 
101 
100 
99 
98 
97 
96 
95 
94 
93 
92 
91 
90 
89 
88 
87 
86 
85 
84 
83 
82 
81 
80 
79 
78 
77 
76 
75 
74 
73 
72 
71 
70 
69 
68 
67 
66 
65 
64 
63 
62 
61 
60 
59 
58 
57 
56 
55 
54 
53 
52 
51 
50 
49 
48 
47 
46 
45 
44 
43 
42 
41 
40 
39 
38 
37 
36 
35 
34 
33 
32 
31 
30 
29 
28 
27 
26 
25 
24 
23 
22 
21 
20 
19 
18 
17 
16 
15 
14 
13 
12 
11 
10 
9 
8 
7 
6 
5 
4 
3 
2 
1 
