# vtk DataFile Version 3.0
Mesquite Mesh
ASCII
DATASET UNSTRUCTURED_GRID
POINTS 180 double
0.2 0.2 0.8
0.4 0.2 0.8
0.6 0.2 0.8
0.8 0.2 0.8
0.2 0.4 0.8
0.4 0.4 0.8
0.6 0.4 0.8
0.8 0.4 0.8
0.2 0.6 0.8
0.4 0.6 0.8
0.6 0.6 0.8
0.8 0.6 0.8
0.2 0.8 0.8
0.4 0.8 0.8
0.6 0.8 0.8
0.8 0.8 0.8
0.2 0.2 0.2
0.4 0.2 0.2
0.6 0.2 0.2
0.8 0.2 0.2
0.2 0.4 0.2
0.4 0.4 0.2
0.6 0.4 0.2
0.8 0.4 0.2
0.2 0.6 0.2
0.4 0.6 0.2
0.6 0.6 0.2
0.8 0.6 0.2
0.2 0.8 0.2
0.4 0.8 0.2
0.6 0.8 0.2
0.8 0.8 0.2
0.2 0.2 0.4
0.4 0.2 0.4
0.6 0.2 0.4
0.8 0.2 0.4
0.2 0.4 0.4
0.4 0.4 0.4
0.6 0.4 0.4
0.8 0.4 0.4
0.2 0.6 0.4
0.4 0.6 0.4
0.6 0.6 0.4
0.8 0.6 0.4
0.2 0.8 0.4
0.4 0.8 0.4
0.6 0.8 0.4
0.8 0.8 0.4
0.2 0.2 0.6
0.4 0.2 0.6
0.6 0.2 0.6
0.8 0.2 0.6
0.2 0.4 0.6
0.4 0.4 0.6
0.6 0.4 0.6
0.8 0.4 0.6
0.2 0.6 0.6
0.4 0.6 0.6
0.6 0.6 0.6
0.8 0.6 0.6
0.2 0.8 0.6
0.4 0.8 0.6
0.6 0.8 0.6
0.8 0.8 0.6
0 0.2 0.8
0 0.4 0.8
0 0.6 0.8
0 0.8 0.8
1 0.2 0.8
1 0.4 0.8
1 0.6 0.8
1 0.8 0.8
0.2 0 0.8
0.4 0 0.8
0.6 0 0.8
0.8 0 0.8
0.2 1 0.8
0.4 1 0.8
0.6 1 0.8
0.8 1 0.8
0 0.2 0.2
0 0.4 0.2
0 0.6 0.2
0 0.8 0.2
0 0.2 0.4
0 0.4 0.4
0 0.6 0.4
0 0.8 0.4
1 0.2 0.2
1 0.4 0.2
1 0.6 0.2
1 0.8 0.2
1 0.2 0.4
1 0.4 0.4
1 0.6 0.4
1 0.8 0.4
0.2 0 0.2
0.4 0 0.2
0.6 0 0.2
0.8 0 0.2
0.2 0 0.4
0.4 0 0.4
0.6 0 0.4
0.8 0 0.4
0.2 1 0.2
0.4 1 0.2
0.6 1 0.2
0.8 1 0.2
0.2 1 0.4
0.4 1 0.4
0.6 1 0.4
0.8 1 0.4
0.2 0.2 0.0256
0.4 0.2 0.0384
0.6 0.2 0.0384
0.8 0.2 0.0256
0.2 0.4 0.0384
0.4 0.4 0.0576
0.6 0.4 0.0576
0.8 0.4 0.0384
0.2 0.6 0.0384
0.4 0.6 0.0576
0.6 0.6 0.0576
0.8 0.6 0.0384
0.2 0.8 0.0256
0.4 0.8 0.0384
0.6 0.8 0.0384
0.8 0.8 0.0256
0 0.2 0.6
0 0.4 0.6
0 0.6 0.6
0 0.8 0.6
1 0.2 0.6
1 0.4 0.6
1 0.6 0.6
1 0.8 0.6
0.2 0 0.6
0.4 0 0.6
0.6 0 0.6
0.8 0 0.6
0.2 1 0.6
0.4 1 0.6
0.6 1 0.6
0.8 1 0.6
0 0 0.8
0 1 0.8
1 0 0.8
1 1 0.8
0 0 0.2
0 0 0.4
0 1 0.2
0 1 0.4
0 0.2 0
0 0.4 0
0 0.6 0
0 0.8 0
1 0 0.2
1 0 0.4
1 1 0.2
1 1 0.4
1 0.2 0
1 0.4 0
1 0.6 0
1 0.8 0
0.2 0 0
0.4 0 0
0.6 0 0
0.8 0 0
0.2 1 0
0.4 1 0
0.6 1 0
0.8 1 0
0 0 0.6
0 1 0.6
1 0 0.6
1 1 0.6
0 0 0
0 1 0
1 0 0
1 1 0
CELLS 100 900
8 172 136 48 128 144 72 0 64
8 136 137 49 48 72 73 1 0
8 137 138 50 49 73 74 2 1
8 138 139 51 50 74 75 3 2
8 139 174 132 51 75 146 68 3
8 128 48 52 129 64 0 4 65
8 48 49 53 52 0 1 5 4
8 49 50 54 53 1 2 6 5
8 50 51 55 54 2 3 7 6
8 51 132 133 55 3 68 69 7
8 129 52 56 130 65 4 8 66
8 52 53 57 56 4 5 9 8
8 53 54 58 57 5 6 10 9
8 54 55 59 58 6 7 11 10
8 55 133 134 59 7 69 70 11
8 130 56 60 131 66 8 12 67
8 56 57 61 60 8 9 13 12
8 57 58 62 61 9 10 14 13
8 58 59 63 62 10 11 15 14
8 59 134 135 63 11 70 71 15
8 131 60 140 173 67 12 76 145
8 60 61 141 140 12 13 77 76
8 61 62 142 141 13 14 78 77
8 62 63 143 142 14 15 79 78
8 63 135 175 143 15 71 147 79
8 176 164 112 152 148 96 16 80
8 164 165 113 112 96 97 17 16
8 165 166 114 113 97 98 18 17
8 166 167 115 114 98 99 19 18
8 167 178 160 115 99 156 88 19
8 152 112 116 153 80 16 20 81
8 112 113 117 116 16 17 21 20
8 113 114 118 117 17 18 22 21
8 114 115 119 118 18 19 23 22
8 115 160 161 119 19 88 89 23
8 153 116 120 154 81 20 24 82
8 116 117 121 120 20 21 25 24
8 117 118 122 121 21 22 26 25
8 118 119 123 122 22 23 27 26
8 119 161 162 123 23 89 90 27
8 154 120 124 155 82 24 28 83
8 120 121 125 124 24 25 29 28
8 121 122 126 125 25 26 30 29
8 122 123 127 126 26 27 31 30
8 123 162 163 127 27 90 91 31
8 155 124 168 177 83 28 104 150
8 124 125 169 168 28 29 105 104
8 125 126 170 169 29 30 106 105
8 126 127 171 170 30 31 107 106
8 127 163 179 171 31 91 158 107
8 148 96 16 80 149 100 32 84
8 96 97 17 16 100 101 33 32
8 97 98 18 17 101 102 34 33
8 98 99 19 18 102 103 35 34
8 99 156 88 19 103 157 92 35
8 80 16 20 81 84 32 36 85
8 16 17 21 20 32 33 37 36
8 17 18 22 21 33 34 38 37
8 18 19 23 22 34 35 39 38
8 19 88 89 23 35 92 93 39
8 81 20 24 82 85 36 40 86
8 20 21 25 24 36 37 41 40
8 21 22 26 25 37 38 42 41
8 22 23 27 26 38 39 43 42
8 23 89 90 27 39 93 94 43
8 82 24 28 83 86 40 44 87
8 24 25 29 28 40 41 45 44
8 25 26 30 29 41 42 46 45
8 26 27 31 30 42 43 47 46
8 27 90 91 31 43 94 95 47
8 83 28 104 150 87 44 108 151
8 28 29 105 104 44 45 109 108
8 29 30 106 105 45 46 110 109
8 30 31 107 106 46 47 111 110
8 31 91 158 107 47 95 159 111
8 149 100 32 84 172 136 48 128
8 100 101 33 32 136 137 49 48
8 101 102 34 33 137 138 50 49
8 102 103 35 34 138 139 51 50
8 103 157 92 35 139 174 132 51
8 84 32 36 85 128 48 52 129
8 32 33 37 36 48 49 53 52
8 33 34 38 37 49 50 54 53
8 34 35 39 38 50 51 55 54
8 35 92 93 39 51 132 133 55
8 85 36 40 86 129 52 56 130
8 36 37 41 40 52 53 57 56
8 37 38 42 41 53 54 58 57
8 38 39 43 42 54 55 59 58
8 39 93 94 43 55 133 134 59
8 86 40 44 87 130 56 60 131
8 40 41 45 44 56 57 61 60
8 41 42 46 45 57 58 62 61
8 42 43 47 46 58 59 63 62
8 43 94 95 47 59 134 135 63
8 87 44 108 151 131 60 140 173
8 44 45 109 108 60 61 141 140
8 45 46 110 109 61 62 142 141
8 46 47 111 110 62 63 143 142
8 47 95 159 111 63 135 175 143
CELL_TYPES 100
12
12
12
12
12
12
12
12
12
12
12
12
12
12
12
12
12
12
12
12
12
12
12
12
12
12
12
12
12
12
12
12
12
12
12
12
12
12
12
12
12
12
12
12
12
12
12
12
12
12
12
12
12
12
12
12
12
12
12
12
12
12
12
12
12
12
12
12
12
12
12
12
12
12
12
12
12
12
12
12
12
12
12
12
12
12
12
12
12
12
12
12
12
12
12
12
12
12
12
12
POINT_DATA 180
SCALARS fixed int
LOOKUP_TABLE default
0
0
0
0
0
0
0
0
0
0
0
0
0
0
0
0
0
0
0
0
0
0
0
0
0
0
0
0
0
0
0
0
0
0
0
0
0
0
0
0
0
0
0
0
0
0
0
0
0
0
0
0
0
0
0
0
0
0
0
0
0
0
0
0
1
1
1
1
1
1
1
1
1
1
1
1
1
1
1
1
1
1
1
1
1
1
1
1
1
1
1
1
1
1
1
1
1
1
1
1
1
1
1
1
1
1
1
1
1
1
1
1
1
1
1
1
1
1
1
1
1
1
1
1
1
1
1
1
1
1
1
1
1
1
1
1
1
1
1
1
1
1
1
1
1
1
1
1
1
1
1
1
1
1
1
1
1
1
1
1
1
1
1
1
1
1
1
1
1
1
1
1
1
1
1
1
1
1
1
1
SCALARS GLOBAL_ID unsigned_long 1
LOOKUP_TABLE default
152
153
154
155
158
159
160
161
164
165
166
167
170
171
172
173
44
45
46
47
50
51
52
53
56
57
58
59
62
63
64
65
80
81
82
83
86
87
88
89
92
93
94
95
98
99
100
101
116
117
118
119
122
123
124
125
128
129
130
131
134
135
136
137
151
157
163
169
156
162
168
174
146
147
148
149
176
177
178
179
43
49
55
61
79
85
91
97
48
54
60
66
84
90
96
102
38
39
40
41
74
75
76
77
68
69
70
71
104
105
106
107
8
9
10
11
14
15
16
17
20
21
22
23
26
27
28
29
115
121
127
133
120
126
132
138
110
111
112
113
140
141
142
143
145
175
150
180
37
73
67
103
7
13
19
25
42
78
72
108
12
18
24
30
2
3
4
5
32
33
34
35
109
139
114
144
1
31
6
36
SCALARS PROCESSOR_ID int 1
LOOKUP_TABLE default
1
1
1
1
1
1
1
1
1
1
1
1
1
1
1
1
0
0
0
0
0
0
0
0
0
0
0
0
0
0
0
0
0
0
0
0
0
0
0
0
0
0
0
0
0
0
0
0
1
1
1
1
1
1
1
1
1
1
1
1
1
1
1
1
1
1
1
1
1
1
1
1
1
1
1
1
1
1
1
1
0
0
0
0
0
0
0
0
0
0
0
0
0
0
0
0
0
0
0
0
0
0
0
0
0
0
0
0
0
0
0
0
0
0
0
0
0
0
0
0
0
0
0
0
0
0
0
0
1
1
1
1
1
1
1
1
1
1
1
1
1
1
1
1
1
1
1
1
0
0
0
0
0
0
0
0
0
0
0
0
0
0
0
0
0
0
0
0
0
0
0
0
1
1
1
1
0
0
0
0
