# vtk DataFile Version 3.0
Mesquite Mesh
ASCII
DATASET UNSTRUCTURED_GRID
POINTS 216 double
0.2 0.2 0.210368542
0.4 0.2 0.2161568058
0.6 0.2 0.2161568058
0.8 0.2 0.210368542
0.2 0.4 0.2161568058
0.4 0.4 0.2251895947
0.6 0.4 0.2251895947
0.8 0.4 0.2161568058
0.2 0.6 0.2161568058
0.4 0.6 0.2251895947
0.6 0.6 0.2251895947
0.8 0.6 0.2161568058
0.2 0.8 0.210368542
0.4 0.8 0.2161568058
0.6 0.8 0.2161568058
0.8 0.8 0.210368542
0.2 0.2 0.4042976406
0.4 0.2 0.4068258923
0.6 0.2 0.4068258923
0.8 0.2 0.4042976406
0.2 0.4 0.4068258923
0.4 0.4 0.4108447671
0.6 0.4 0.4108447671
0.8 0.4 0.4068258923
0.2 0.6 0.4068258923
0.4 0.6 0.4108447671
0.6 0.6 0.4108447671
0.8 0.6 0.4068258923
0.2 0.8 0.4042976406
0.4 0.8 0.4068258923
0.6 0.8 0.4068258923
0.8 0.8 0.4042976406
0.2 0.2 0.6017655172
0.4 0.2 0.602830248
0.6 0.2 0.602830248
0.8 0.2 0.6017655172
0.2 0.4 0.602830248
0.4 0.4 0.604537689
0.6 0.4 0.604537689
0.8 0.4 0.602830248
0.2 0.6 0.602830248
0.4 0.6 0.604537689
0.6 0.6 0.604537689
0.8 0.6 0.602830248
0.2 0.8 0.6017655172
0.4 0.8 0.602830248
0.6 0.8 0.602830248
0.8 0.8 0.6017655172
0.2 0.2 0.8006349667
0.4 0.2 0.8010221416
0.6 0.2 0.8010221416
0.8 0.2 0.8006349667
0.2 0.4 0.8010221416
0.4 0.4 0.801645493
0.6 0.4 0.801645493
0.8 0.4 0.8010221416
0.2 0.6 0.8010221416
0.4 0.6 0.801645493
0.6 0.6 0.801645493
0.8 0.6 0.8010221416
0.2 0.8 0.8006349667
0.4 0.8 0.8010221416
0.6 0.8 0.8010221416
0.8 0.8 0.8006349667
0 0.2 0.2
0 0.4 0.2
0 0.6 0.2
0 0.8 0.2
0 0.2 0.4
0 0.4 0.4
0 0.6 0.4
0 0.8 0.4
0 0.2 0.6
0 0.4 0.6
0 0.6 0.6
0 0.8 0.6
0 0.2 0.8
0 0.4 0.8
0 0.6 0.8
0 0.8 0.8
1 0.2 0.2
1 0.4 0.2
1 0.6 0.2
1 0.8 0.2
1 0.2 0.4
1 0.4 0.4
1 0.6 0.4
1 0.8 0.4
1 0.2 0.6
1 0.4 0.6
1 0.6 0.6
1 0.8 0.6
1 0.2 0.8
1 0.4 0.8
1 0.6 0.8
1 0.8 0.8
0.2 0 0.2
0.4 0 0.2
0.6 0 0.2
0.8 0 0.2
0.2 0 0.4
0.4 0 0.4
0.6 0 0.4
0.8 0 0.4
0.2 0 0.6
0.4 0 0.6
0.6 0 0.6
0.8 0 0.6
0.2 0 0.8
0.4 0 0.8
0.6 0 0.8
0.8 0 0.8
0.2 1 0.2
0.4 1 0.2
0.6 1 0.2
0.8 1 0.2
0.2 1 0.4
0.4 1 0.4
0.6 1 0.4
0.8 1 0.4
0.2 1 0.6
0.4 1 0.6
0.6 1 0.6
0.8 1 0.6
0.2 1 0.8
0.4 1 0.8
0.6 1 0.8
0.8 1 0.8
0.2 0.2 0.0256
0.4 0.2 0.0384
0.6 0.2 0.0384
0.8 0.2 0.0256
0.2 0.4 0.0384
0.4 0.4 0.0576
0.6 0.4 0.0576
0.8 0.4 0.0384
0.2 0.6 0.0384
0.4 0.6 0.0576
0.6 0.6 0.0576
0.8 0.6 0.0384
0.2 0.8 0.0256
0.4 0.8 0.0384
0.6 0.8 0.0384
0.8 0.8 0.0256
0.2 0.2 1
0.4 0.2 1
0.6 0.2 1
0.8 0.2 1
0.2 0.4 1
0.4 0.4 1
0.6 0.4 1
0.8 0.4 1
0.2 0.6 1
0.4 0.6 1
0.6 0.6 1
0.8 0.6 1
0.2 0.8 1
0.4 0.8 1
0.6 0.8 1
0.8 0.8 1
0 0 0.2
0 0 0.4
0 0 0.6
0 0 0.8
0 1 0.2
0 1 0.4
0 1 0.6
0 1 0.8
0 0.2 0
0 0.4 0
0 0.6 0
0 0.8 0
0 0.2 1
0 0.4 1
0 0.6 1
0 0.8 1
1 0 0.2
1 0 0.4
1 0 0.6
1 0 0.8
1 1 0.2
1 1 0.4
1 1 0.6
1 1 0.8
1 0.2 0
1 0.4 0
1 0.6 0
1 0.8 0
1 0.2 1
1 0.4 1
1 0.6 1
1 0.8 1
0.2 0 0
0.4 0 0
0.6 0 0
0.8 0 0
0.2 0 1
0.4 0 1
0.6 0 1
0.8 0 1
0.2 1 0
0.4 1 0
0.6 1 0
0.8 1 0
0.2 1 1
0.4 1 1
0.6 1 1
0.8 1 1
0 0 0
0 0 1
0 1 0
0 1 1
1 0 0
1 0 1
1 1 0
1 1 1
CELLS 125 1125
8 208 192 128 168 160 96 0 64
8 192 193 129 128 96 97 1 0
8 193 194 130 129 97 98 2 1
8 194 195 131 130 98 99 3 2
8 195 212 184 131 99 176 80 3
8 168 128 132 169 64 0 4 65
8 128 129 133 132 0 1 5 4
8 129 130 134 133 1 2 6 5
8 130 131 135 134 2 3 7 6
8 131 184 185 135 3 80 81 7
8 169 132 136 170 65 4 8 66
8 132 133 137 136 4 5 9 8
8 133 134 138 137 5 6 10 9
8 134 135 139 138 6 7 11 10
8 135 185 186 139 7 81 82 11
8 170 136 140 171 66 8 12 67
8 136 137 141 140 8 9 13 12
8 137 138 142 141 9 10 14 13
8 138 139 143 142 10 11 15 14
8 139 186 187 143 11 82 83 15
8 171 140 200 210 67 12 112 164
8 140 141 201 200 12 13 113 112
8 141 142 202 201 13 14 114 113
8 142 143 203 202 14 15 115 114
8 143 187 214 203 15 83 180 115
8 160 96 0 64 161 100 16 68
8 96 97 1 0 100 101 17 16
8 97 98 2 1 101 102 18 17
8 98 99 3 2 102 103 19 18
8 99 176 80 3 103 177 84 19
8 64 0 4 65 68 16 20 69
8 0 1 5 4 16 17 21 20
8 1 2 6 5 17 18 22 21
8 2 3 7 6 18 19 23 22
8 3 80 81 7 19 84 85 23
8 65 4 8 66 69 20 24 70
8 4 5 9 8 20 21 25 24
8 5 6 10 9 21 22 26 25
8 6 7 11 10 22 23 27 26
8 7 81 82 11 23 85 86 27
8 66 8 12 67 70 24 28 71
8 8 9 13 12 24 25 29 28
8 9 10 14 13 25 26 30 29
8 10 11 15 14 26 27 31 30
8 11 82 83 15 27 86 87 31
8 67 12 112 164 71 28 116 165
8 12 13 113 112 28 29 117 116
8 13 14 114 113 29 30 118 117
8 14 15 115 114 30 31 119 118
8 15 83 180 115 31 87 181 119
8 161 100 16 68 162 104 32 72
8 100 101 17 16 104 105 33 32
8 101 102 18 17 105 106 34 33
8 102 103 19 18 106 107 35 34
8 103 177 84 19 107 178 88 35
8 68 16 20 69 72 32 36 73
8 16 17 21 20 32 33 37 36
8 17 18 22 21 33 34 38 37
8 18 19 23 22 34 35 39 38
8 19 84 85 23 35 88 89 39
8 69 20 24 70 73 36 40 74
8 20 21 25 24 36 37 41 40
8 21 22 26 25 37 38 42 41
8 22 23 27 26 38 39 43 42
8 23 85 86 27 39 89 90 43
8 70 24 28 71 74 40 44 75
8 24 25 29 28 40 41 45 44
8 25 26 30 29 41 42 46 45
8 26 27 31 30 42 43 47 46
8 27 86 87 31 43 90 91 47
8 71 28 116 165 75 44 120 166
8 28 29 117 116 44 45 121 120
8 29 30 118 117 45 46 122 121
8 30 31 119 118 46 47 123 122
8 31 87 181 119 47 91 182 123
8 162 104 32 72 163 108 48 76
8 104 105 33 32 108 109 49 48
8 105 106 34 33 109 110 50 49
8 106 107 35 34 110 111 51 50
8 107 178 88 35 111 179 92 51
8 72 32 36 73 76 48 52 77
8 32 33 37 36 48 49 53 52
8 33 34 38 37 49 50 54 53
8 34 35 39 38 50 51 55 54
8 35 88 89 39 51 92 93 55
8 73 36 40 74 77 52 56 78
8 36 37 41 40 52 53 57 56
8 37 38 42 41 53 54 58 57
8 38 39 43 42 54 55 59 58
8 39 89 90 43 55 93 94 59
8 74 40 44 75 78 56 60 79
8 40 41 45 44 56 57 61 60
8 41 42 46 45 57 58 62 61
8 42 43 47 46 58 59 63 62
8 43 90 91 47 59 94 95 63
8 75 44 120 166 79 60 124 167
8 44 45 121 120 60 61 125 124
8 45 46 122 121 61 62 126 125
8 46 47 123 122 62 63 127 126
8 47 91 182 123 63 95 183 127
8 163 108 48 76 209 196 144 172
8 108 109 49 48 196 197 145 144
8 109 110 50 49 197 198 146 145
8 110 111 51 50 198 199 147 146
8 111 179 92 51 199 213 188 147
8 76 48 52 77 172 144 148 173
8 48 49 53 52 144 145 149 148
8 49 50 54 53 145 146 150 149
8 50 51 55 54 146 147 151 150
8 51 92 93 55 147 188 189 151
8 77 52 56 78 173 148 152 174
8 52 53 57 56 148 149 153 152
8 53 54 58 57 149 150 154 153
8 54 55 59 58 150 151 155 154
8 55 93 94 59 151 189 190 155
8 78 56 60 79 174 152 156 175
8 56 57 61 60 152 153 157 156
8 57 58 62 61 153 154 158 157
8 58 59 63 62 154 155 159 158
8 59 94 95 63 155 190 191 159
8 79 60 124 167 175 156 204 211
8 60 61 125 124 156 157 205 204
8 61 62 126 125 157 158 206 205
8 62 63 127 126 158 159 207 206
8 63 95 183 127 159 191 215 207
CELL_TYPES 125
12
12
12
12
12
12
12
12
12
12
12
12
12
12
12
12
12
12
12
12
12
12
12
12
12
12
12
12
12
12
12
12
12
12
12
12
12
12
12
12
12
12
12
12
12
12
12
12
12
12
12
12
12
12
12
12
12
12
12
12
12
12
12
12
12
12
12
12
12
12
12
12
12
12
12
12
12
12
12
12
12
12
12
12
12
12
12
12
12
12
12
12
12
12
12
12
12
12
12
12
12
12
12
12
12
12
12
12
12
12
12
12
12
12
12
12
12
12
12
12
12
12
12
12
12
POINT_DATA 216
SCALARS fixed int
LOOKUP_TABLE default
0
0
0
0
0
0
0
0
0
0
0
0
0
0
0
0
0
0
0
0
0
0
0
0
0
0
0
0
0
0
0
0
0
0
0
0
0
0
0
0
0
0
0
0
0
0
0
0
0
0
0
0
0
0
0
0
0
0
0
0
0
0
0
0
1
1
1
1
1
1
1
1
1
1
1
1
1
1
1
1
1
1
1
1
1
1
1
1
1
1
1
1
1
1
1
1
1
1
1
1
1
1
1
1
1
1
1
1
1
1
1
1
1
1
1
1
1
1
1
1
1
1
1
1
1
1
1
1
1
1
1
1
1
1
1
1
1
1
1
1
1
1
1
1
1
1
1
1
1
1
1
1
1
1
1
1
1
1
1
1
1
1
1
1
1
1
1
1
1
1
1
1
1
1
1
1
1
1
1
1
1
1
1
1
1
1
1
1
1
1
1
1
1
1
1
1
1
1
1
1
1
1
1
1
1
1
1
1
1
1
1
1
1
1
1
1
SCALARS GLOBAL_ID unsigned_long 1
LOOKUP_TABLE default
44
45
46
47
50
51
52
53
56
57
58
59
62
63
64
65
80
81
82
83
86
87
88
89
92
93
94
95
98
99
100
101
116
117
118
119
122
123
124
125
128
129
130
131
134
135
136
137
152
153
154
155
158
159
160
161
164
165
166
167
170
171
172
173
43
49
55
61
79
85
91
97
115
121
127
133
151
157
163
169
48
54
60
66
84
90
96
102
120
126
132
138
156
162
168
174
38
39
40
41
74
75
76
77
110
111
112
113
146
147
148
149
68
69
70
71
104
105
106
107
140
141
142
143
176
177
178
179
8
9
10
11
14
15
16
17
20
21
22
23
26
27
28
29
188
189
190
191
194
195
196
197
200
201
202
203
206
207
208
209
37
73
109
145
67
103
139
175
7
13
19
25
187
193
199
205
42
78
114
150
72
108
144
180
12
18
24
30
192
198
204
210
2
3
4
5
182
183
184
185
32
33
34
35
212
213
214
215
1
181
31
211
6
186
36
216
SCALARS PROCESSOR_ID int 1
LOOKUP_TABLE default
0
0
0
0
0
0
0
0
0
0
0
0
0
0
0
0
0
0
0
0
0
0
0
0
0
0
0
0
0
0
0
0
0
0
0
0
0
0
0
0
0
0
0
0
0
0
0
0
0
0
0
0
0
0
0
0
0
0
0
0
0
0
0
0
0
0
0
0
0
0
0
0
0
0
0
0
0
0
0
0
0
0
0
0
0
0
0
0
0
0
0
0
0
0
0
0
0
0
0
0
0
0
0
0
0
0
0
0
0
0
0
0
0
0
0
0
0
0
0
0
0
0
0
0
0
0
0
0
0
0
0
0
0
0
0
0
0
0
0
0
0
0
0
0
0
0
0
0
0
0
0
0
0
0
0
0
0
0
0
0
0
0
0
0
0
0
0
0
0
0
0
0
0
0
0
0
0
0
0
0
0
0
0
0
0
0
0
0
0
0
0
0
0
0
0
0
0
0
0
0
0
0
0
0
0
0
0
0
0
0
0
0
0
0
0
0
