# vtk DataFile Version 3.0
MOAB 3.99 (Alpha)
ASCII
DATASET UNSTRUCTURED_GRID
POINTS 15364 double
-174.7495344 7.227381047 0
-174.7380957 8.289258217 0
-174.7953401 6.330064215 0
-174.8268371 5.178146771 0
-175.0025174 4.208593491 0
-174.9573463 2.963365877 0
-174.8129383 1.623013852 0
-174.6047583 0.2322371336 0
-174.42259 -1.116914611 0
-174.367532 -2.303851606 0
-174.5684035 -2.93097404 0
-174.3241127 -3.859102579 0
-174.1095221 -5.330658086 0
-174.0371459 -6.661524461 0
-174.0063754 -7.874092958 0
-174.0337914 -8.984032911 0
-174.0542826 -10.07586015 0
-174.0079542 -11.22514432 0
-173.9366519 -12.39128072 0
-173.8765407 -13.52280023 0
-173.8198588 -14.60153561 0
-173.805077 -15.62629303 0
-173.8088334 -16.63146926 0
-173.7600676 -17.68856982 0
-173.706157 -18.74566694 0
-173.6600781 -19.78337808 0
-173.5862471 -21.04560198 0
-173.6120214 -21.68705982 0
-173.600526 -22.31405343 0
-173.6881784 -23.42708196 0
-173.6269802 -24.49648329 0
-173.4312429 -25.69395832 0
-173.0620043 -27.02426297 0
-172.7864717 -28.28407655 0
-172.5228956 -29.49263667 0
-172.2363328 -30.71709923 0
-171.963222 -31.92674339 0
-171.7303815 -33.10072718 0
-171.3846755 -34.33783205 0
-170.9176897 -35.64904175 0
-170.4691743 -36.92303144 0
-170.1548434 -38.09271411 0
-169.90292 -39.18686242 0
-169.7559345 -40.15774706 0
-169.8446946 -40.71805074 0
-169.5184429 -41.52558895 0
-169.2100718 -42.84385141 0
-168.9323664 -44.02560809 0
-168.5347337 -45.21231787 0
-168.0803469 -46.42096348 0
-167.630152 -47.61793072 0
-167.1828693 -48.80740714 0
-166.7695319 -49.96557715 0
-166.3824718 -51.09851839 0
-166.0323738 -52.19912663 0
-165.7461499 -53.25105493 0
-165.459493 -54.296185 0
-165.1815286 -55.3252135 0
-164.9024685 -56.34589878 0
-164.6169401 -57.35885664 0
-164.3628278 -58.33607232 0
-164.3956686 -58.92766883 0
-163.9807891 -59.68660767 0
-163.5242536 -60.98304704 0
-163.2443471 -62.07252676 0
-163.0227663 -63.04617202 0
-162.8016033 -63.99274557 0
-162.5441756 -64.95697819 0
-162.2118706 -65.95648757 0
-161.8021089 -67.03188923 0
-161.5402029 -67.68426584 0
-161.3835611 -67.9702655 0
-161.3348273 -68.27043719 0
-161.1597488 -68.8012829 0
-160.9676161 -69.32629877 0
-160.7346831 -69.62068573 0
-160.6944002 -69.93663102 0
-160.4427122 -70.42780979 0
-160.1516654 -70.92305168 0
-159.8432368 -71.44161791 0
-159.6980621 -71.68868224 0
-159.5908218 -71.97496603 0
-159.4866922 -72.50511657 0
-159.3675769 -73.00116598 0
-159.1694233 -73.29057695 0
-159.2074825 -73.62629341 0
-158.9469193 -74.44265469 0
-158.4297664 -75.43948405 0
-157.8401917 -76.52689399 0
-157.2115662 -77.61633265 0
-156.6124227 -78.67670751 0
-156.0450226 -79.71376932 0
-155.5110973 -80.72745757 0
-155.0226777 -81.71258327 0
-154.5657261 -82.67093192 0
-153.9534148 -83.6545266 0
-153.0903595 -84.64712774 0
-152.218773 -85.6108529 0
-151.4756098 -86.67027511 0
-150.4743796 -87.81335313 0
-149.4837184 -88.97895357 0
-148.5288322 -90.11939435 0
-147.6528788 -91.22284925 0
-146.8059303 -92.30806969 0
-146.1011526 -93.33655925 0
-145.4707119 -94.33196868 0
-144.9061077 -95.29837477 0
-144.4067267 -96.23617467 0
-143.9649451 -97.14840159 0
-143.6045293 -98.02159905 0
-143.294409 -98.86526803 0
-143.0070751 -99.68671402 0
-142.7939649 -100.4338254 0
-142.6243733 -101.1017937 0
-142.493016 -101.9076591 0
-142.1905874 -102.8464047 0
-141.5424399 -103.835383 0
-140.7528073 -104.8001276 0
-140.000725 -105.6696459 0
-139.1839816 -106.5594206 0
-138.609332 -107.4354375 0
-137.9996933 -108.3400446 0
-137.1956025 -109.2791846 0
-136.1609797 -110.2583967 0
-134.9873951 -111.2450216 0
-133.8399647 -112.2096588 0
-132.8652707 -113.1145547 0
-132.104858 -113.9493894 0
-131.4191057 -114.705943 0
-130.968041 -115.358149 0
-130.4622967 -115.9735712 0
-129.629797 -116.7956397 0
-128.7041641 -117.6983247 0
-127.7708722 -118.6108501 0
-126.8637516 -119.5053929 0
-125.9538415 -120.382145 0
-125.0393936 -121.2406637 0
-124.1454163 -122.0770373 0
-123.2401587 -122.8945495 0
-122.362961 -123.6917875 0
-121.5270635 -124.4825975 0
-120.7681652 -125.2464947 0
-120.0018068 -126.0109307 0
-119.3263388 -126.7497883 0
-118.7876992 -127.4472651 0
-118.3931757 -128.0792245 0
-117.879667 -128.6700155 0
-117.1707408 -129.3758725 0
-116.4464708 -130.1456136 0
-115.7405393 -130.9134362 0
-115.0874778 -131.6719591 0
-114.4343592 -132.4384452 0
-113.8570389 -133.1884499 0
-113.2421598 -133.9059385 0
-112.5652833 -134.5760791 0
-112.0534019 -135.0343211 0
-111.5961558 -135.390854 0
-111.1422211 -135.6997439 0
-110.7172283 -135.9485187 0
-110.4006888 -136.1015841 0
-110.3330015 -136.3725106 0
-110.1260107 -136.7282176 0
-109.7057639 -137.0926541 0
-109.1096668 -137.4081126 0
-108.6260477 -137.6766439 0
-108.2096712 -137.903259 0
-107.8969259 -138.0837594 0
-107.6257754 -138.3329453 0
-107.2848132 -138.6243513 0
-106.876216 -138.9268191 0
-106.4412228 -139.2479706 0
-105.5891257 -139.8341948 0
-104.6362635 -140.4746023 0
-103.6647274 -141.1174971 0
-102.5989254 -141.7579092 0
-101.5265023 -142.3697709 0
-100.5954295 -142.9750073 0
-99.53045091 -143.5828465 0
-98.63156007 -144.1634551 0
-97.79482848 -144.5947545 0
-96.66177351 -145.181351 0
-95.46012345 -145.7960498 0
-94.24347065 -146.4268584 0
-93.05836538 -147.0281579 0
-91.91826229 -147.6291726 0
-90.86150416 -148.2314227 0
-89.78596061 -148.8204552 0
-88.80268945 -149.4149259 0
-87.82167484 -149.999831 0
-86.87709094 -150.5821722 0
-85.96029591 -151.1618421 0
-85.07161146 -151.7386231 0
-84.25664217 -152.3196631 0
-83.43465175 -152.8953279 0
-82.69761405 -153.4795616 0
-82.06239769 -154.0705818 0
-81.52371353 -154.6927283 0
-80.5733621 -155.1775235 0
-79.51333137 -155.6016924 0
-78.41734204 -156.0885027 0
-77.39185776 -156.6074587 0
-76.38368004 -157.127166 0
-75.32751339 -157.6290684 0
-74.19984554 -158.1052746 0
-73.12810441 -158.5970597 0
-72.30263113 -159.1477609 0
-71.64234116 -159.6717057 0
-70.72677456 -160.0930166 0
-69.4864214 -160.4843728 0
-68.19815426 -160.8448581 0
-66.8783648 -161.16632 0
-65.49745576 -161.4788212 0
-64.18771586 -161.838329 0
-63.04943619 -162.2704509 0
-62.01750628 -162.7137719 0
-61.07710527 -163.1701619 0
-60.12993716 -163.570779 0
-59.24138797 -163.9625059 0
-58.32212377 -164.3582847 0
-57.29256641 -164.7633246 0
-56.31508925 -165.2179803 0
-55.3810753 -165.6922828 0
-54.48001161 -166.1714928 0
-53.57302484 -166.6377442 0
-52.61369763 -167.0976573 0
-51.77123304 -167.3697051 0
-50.88271281 -167.6754826 0
-49.67002809 -168.0058551 0
-48.71859806 -168.3837956 0
-47.80188259 -168.7765246 0
-46.87507227 -169.168651 0
-45.91884345 -169.5292208 0
-44.90385863 -169.821414 0
-43.89837547 -170.0912296 0
-42.90597407 -170.3467007 0
-41.85255845 -170.575445 0
-40.5486622 -170.624631 0
-38.89278115 -170.6229222 0
-37.45626165 -170.7052936 0
-36.1621213 -170.7455515 0
-35.47107227 -170.8738486 0
-34.98835265 -170.9919481 0
-34.57915315 -171.1376319 0
-34.21371516 -171.2697218 0
-33.87769904 -171.4068119 0
-33.56845414 -171.5206945 0
-33.25718603 -171.6095805 0
-32.85926696 -171.6734215 0
-32.38931594 -171.7368627 0
-31.90698131 -171.8076461 0
-31.44670653 -171.8852442 0
-31.0257201 -171.9779181 0
-30.60810566 -172.0445809 0
-30.16650599 -172.1093941 0
-29.74441665 -172.2005947 0
-29.26920895 -172.243163 0
-28.23563445 -172.3044931 0
-27.04784983 -172.4213848 0
-25.7395549 -172.490966 0
-24.41225926 -172.5683574 0
-23.10662218 -172.6476229 0
-21.90917542 -172.7866231 0
-20.80182866 -172.9524112 0
-19.8676343 -173.1825285 0
-19.11973084 -173.4173787 0
-18.29113724 -173.4533932 0
-17.05802612 -173.4048879 0
-15.71530052 -173.3304252 0
-14.41300059 -173.2873568 0
-13.16785149 -173.2867203 0
-12.03484057 -173.3648608 0
-10.93229074 -173.4736871 0
-9.873111094 -173.6215843 0
-8.855949801 -173.7915621 0
-7.849287607 -173.9270427 0
-6.752659393 -174.0033324 0
-5.60046011 -174.093064 0
-4.48591364 -174.263517 0
-3.369093232 -174.4312496 0
-2.31836778 -174.6353428 0
-1.292348415 -174.8399427 0
-0.2415904944 -175.0160902 0
0.845577188 -175.1551346 0
1.961374765 -175.2652027 0
3.100130631 -175.3315364 0
4.242901724 -175.3862227 0
5.450436947 -175.2820482 0
6.770267178 -175.0695297 0
8.055804573 -174.8992024 0
9.118182691 -174.9492045 0
10.32776449 -174.9182512 0
11.61012899 -174.758055 0
12.69950307 -174.576709 0
13.58376197 -174.4095797 0
14.39695533 -174.4235232 0
15.33729669 -174.6033971 0
16.35147866 -174.7075323 0
17.4516124 -174.7145221 0
18.61975732 -174.6150077 0
19.83804329 -174.3861461 0
21.13208765 -174.038502 0
22.42877867 -173.6669244 0
23.5227043 -173.3275887 0
24.51636411 -173.0487258 0
25.58881127 -172.7515006 0
26.82653292 -172.3778502 0
28.097999 -172.0021512 0
29.38003258 -171.6622375 0
30.64909442 -171.3849332 0
31.78652753 -171.26118 0
32.7908315 -171.257714 0
33.61546375 -171.3673559 0
34.28905631 -171.5102642 0
35.16263346 -171.7553221 0
36.21663402 -171.84475 0
37.40096468 -171.6973968 0
38.59811945 -171.4197111 0
39.71983671 -171.0992561 0
40.81066014 -170.789628 0
41.92033435 -170.4550141 0
42.95910273 -170.1529045 0
43.85258099 -169.8758433 0
44.78114358 -169.655481 0
45.88197515 -169.2901869 0
46.9890093 -168.8622943 0
47.65682776 -168.5898354 0
48.04902267 -168.4423733 0
48.48341511 -168.3257192 0
49.08188718 -168.0715198 0
49.61601701 -167.8536625 0
50.04748772 -167.688846 0
50.36359644 -167.5966254 0
50.78342604 -167.4819322 0
51.24125979 -167.3454106 0
51.57360963 -167.2385689 0
51.8551609 -167.1593526 0
52.27222576 -167.0496993 0
52.70023992 -166.9525987 0
53.12481214 -166.8672929 0
53.54206422 -166.7943331 0
53.96346458 -166.6859754 0
54.77481987 -166.3970193 0
55.8524124 -165.9258314 0
57.0563237 -165.3619457 0
58.17485865 -165.0055972 0
59.16873048 -164.8949899 0
60.18578551 -164.718501 0
61.16894911 -164.5999558 0
62.28267734 -164.2265742 0
63.49782962 -163.6074444 0
64.70137665 -162.968159 0
65.83946245 -162.4252937 0
67.07821585 -161.6803366 0
68.34047775 -160.8939285 0
69.44224731 -160.3593427 0
70.62673815 -159.6641286 0
71.77285315 -159.0477857 0
72.80091887 -158.6187342 0
73.87457956 -158.068943 0
[...]
POINT_DATA 15364
SCALARS GLOBAL_ID int 1
LOOKUP_TABLE default
118897 
118898 
118899 
118900 
118901 
118902 
118903 
118904 
118905 
118906 
118907 
118908 
118909 
118910 
118911 
118912 
118913 
118914 
118915 
118916 
118917 
118918 
118919 
118920 
118921 
118922 
118923 
118924 
118925 
118926 
118927 
118928 
118929 
118930 
118931 
118932 
118933 
118934 
118935 
118936 
118937 
118938 
118939 
118940 
118941 
118942 
118943 
118944 
118945 
118946 
118947 
118948 
118949 
118950 
118951 
118952 
118953 
118954 
118955 
118956 
118957 
118958 
118959 
118960 
118961 
118962 
118963 
118964 
118965 
118966 
118967 
118968 
118969 
118970 
118971 
118972 
118973 
118974 
118975 
118976 
118977 
118978 
118979 
118980 
118981 
118982 
118983 
118984 
118985 
118986 
118987 
118988 
118989 
118990 
118991 
118992 
118993 
118994 
118995 
118996 
118997 
118998 
118999 
119000 
119001 
119002 
119003 
119004 
119005 
119006 
119007 
119008 
119009 
119010 
119011 
119012 
119013 
119014 
119015 
119016 
119017 
119018 
119019 
119020 
119021 
119022 
119023 
119024 
119025 
119026 
119027 
119028 
119029 
119030 
119031 
119032 
119033 
119034 
119035 
119036 
119037 
119038 
119039 
119040 
119041 
119042 
119043 
119044 
119045 
119046 
119047 
119048 
119049 
119050 
119051 
119052 
119053 
119054 
119055 
119056 
119057 
119058 
119059 
119060 
119061 
119062 
119063 
119064 
119065 
119066 
119067 
119068 
119069 
119070 
119071 
119072 
119073 
119074 
119075 
119076 
119077 
119078 
119079 
119080 
119081 
119082 
119083 
119084 
119085 
119086 
119087 
119088 
119089 
119090 
119091 
119092 
119093 
119094 
119095 
119096 
119097 
119098 
119099 
119100 
119101 
119102 
119103 
119104 
119105 
119106 
119107 
119108 
119109 
119110 
119111 
119112 
119113 
119114 
119115 
119116 
119117 
119118 
119119 
119120 
119121 
119122 
119123 
119124 
119125 
119126 
119127 
119128 
119129 
119130 
119131 
119132 
119133 
119134 
119135 
119136 
119137 
119138 
119139 
119140 
119141 
119142 
119143 
119144 
119145 
119146 
119147 
119148 
119149 
119150 
119151 
119152 
119153 
119154 
119155 
119156 
119157 
119158 
119159 
119160 
119161 
119162 
119163 
119164 
119165 
119166 
119167 
119168 
119169 
119170 
119171 
119172 
119173 
119174 
119175 
119176 
119177 
119178 
119179 
119180 
119181 
119182 
119183 
119184 
119185 
119186 
119187 
119188 
119189 
119190 
119191 
119192 
119193 
119194 
119195 
119196 
119197 
119198 
119199 
119200 
119201 
119202 
119203 
119204 
119205 
119206 
119207 
119208 
119209 
119210 
119211 
119212 
119213 
119214 
119215 
119216 
119217 
119218 
119219 
119220 
119221 
119222 
119223 
119224 
119225 
119226 
119227 
119228 
119229 
119230 
119231 
119232 
119233 
119234 
119235 
119236 
119237 
119238 
119239 
119240 
119241 
119242 
119243 
119244 
119245 
119246 
119247 
119248 
119249 
119250 
119251 
119252 
119253 
119254 
119255 
119256 
119257 
119258 
119259 
119260 
119261 
119262 
119263 
119264 
119265 
119266 
119267 
119268 
119269 
119270 
119271 
119272 
119273 
119274 
119275 
119276 
119277 
119278 
119279 
119280 
119281 
119282 
119283 
119284 
119285 
119286 
119287 
119288 
119289 
119290 
119291 
119292 
119293 
119294 
119295 
119296 
119297 
119298 
119299 
119300 
119301 
119302 
119303 
119304 
119305 
119306 
119307 
119308 
119309 
119310 
119311 
119312 
119313 
119314 
119315 
119316 
119317 
119318 
119319 
119320 
119321 
119322 
119323 
119324 
119325 
119326 
119327 
119328 
119329 
119330 
119331 
119332 
119333 
119334 
119335 
119336 
119337 
119338 
119339 
119340 
119341 
119342 
119343 
119344 
119345 
119346 
119347 
119348 
119349 
119350 
119351 
119352 
119353 
119354 
119355 
119356 
119357 
119358 
119359 
119360 
119361 
119362 
119363 
119364 
119365 
119366 
119367 
119368 
119369 
119370 
119371 
119372 
119373 
119374 
119375 
119376 
119377 
119378 
119379 
119380 
119381 
119382 
119383 
119384 
119385 
119386 
119387 
119388 
119389 
119390 
119391 
119392 
119393 
119394 
119395 
119396 
119397 
119398 
119399 
119400 
119401 
119402 
119403 
119404 
119405 
119406 
119407 
119408 
119409 
119410 
119411 
119412 
119413 
119414 
119415 
119416 
119417 
119418 
119419 
119420 
119421 
119422 
119423 
119424 
119425 
119426 
119427 
119428 
119429 
119430 
119431 
119432 
119433 
119434 
119435 
119436 
119437 
119438 
119439 
119440 
119441 
119442 
119443 
119444 
119445 
119446 
119447 
119448 
119449 
119450 
119451 
119452 
119453 
119454 
119455 
119456 
119457 
119458 
119459 
119460 
119461 
119462 
119463 
119464 
119465 
119466 
119467 
119468 
119469 
119470 
119471 
119472 
119473 
119474 
119475 
119476 
119477 
119478 
119479 
119480 
119481 
119482 
119483 
119484 
119485 
119486 
119487 
119488 
119489 
119490 
119491 
119492 
119493 
119494 
119495 
119496 
119497 
119498 
119499 
119500 
119501 
119502 
119503 
119504 
119505 
119506 
119507 
119508 
119509 
119510 
119511 
119512 
119513 
119514 
119515 
119516 
119517 
119518 
119519 
119520 
119521 
119522 
119523 
119524 
119525 
119526 
119527 
119528 
119529 
119530 
119531 
119532 
119533 
119534 
119535 
119536 
119537 
119538 
119539 
119540 
119541 
119542 
119543 
119544 
119545 
119546 
119547 
119548 
119549 
119550 
119551 
119552 
119553 
119554 
119555 
119556 
119557 
119558 
119559 
119560 
119561 
119562 
119563 
119564 
119565 
119566 
119567 
119568 
119569 
119570 
119571 
119572 
119573 
119574 
119575 
119576 
119577 
119578 
119579 
119580 
119581 
119582 
119583 
119584 
119585 
119586 
119587 
119588 
119589 
119590 
119591 
119592 
119593 
119594 
119595 
119596 
119597 
119598 
119599 
119600 
119601 
119602 
119603 
119604 
119605 
119606 
119607 
119608 
119609 
119610 
119611 
119612 
119613 
119614 
119615 
119616 
119617 
119618 
119619 
119620 
119621 
119622 
119623 
119624 
119625 
119626 
119627 
119628 
119629 
119630 
119631 
119632 
119633 
119634 
119635 
119636 
119637 
119638 
119639 
119640 
119641 
119642 
119643 
119644 
119645 
119646 
119647 
119648 
119649 
119650 
119651 
119652 
119653 
119654 
119655 
119656 
119657 
119658 
119659 
119660 
119661 
119662 
119663 
119664 
119665 
119666 
119667 
119668 
119669 
119670 
119671 
119672 
119673 
119674 
119675 
119676 
119677 
119678 
119679 
119680 
119681 
119682 
119683 
119684 
119685 
119686 
119687 
119688 
119689 
119690 
119691 
119692 
119693 
119694 
119695 
119696 
119697 
119698 
119699 
119700 
119701 
119702 
119703 
119704 
119705 
119706 
119707 
119708 
119709 
119710 
119711 
119712 
119713 
119714 
119715 
119716 
119717 
119718 
119719 
119720 
119721 
119722 
119723 
119724 
119725 
119726 
119727 
119728 
119729 
119730 
119731 
119732 
119733 
119734 
119735 
119736 
119737 
119738 
119739 
119740 
119741 
119742 
119743 
119744 
119745 
119746 
119747 
119748 
119749 
119750 
119751 
119752 
119753 
119754 
119755 
119756 
119757 
119758 
119759 
119760 
119761 
119762 
119763 
119764 
119765 
119766 
119767 
119768 
119769 
119770 
119771 
119772 
119773 
119774 
119775 
119776 
119777 
119778 
119779 
119780 
119781 
119782 
119783 
119784 
119785 
119786 
119787 
119788 
119789 
119790 
119791 
119792 
119793 
119794 
119795 
119796 
119797 
119798 
119799 
119800 
119801 
119802 
119803 
119804 
119805 
119806 
119807 
119808 
119809 
119810 
119811 
119812 
119813 
119814 
119815 
119816 
119817 
119818 
119819 
119820 
119821 
119822 
119823 
119824 
119825 
119826 
119827 
119828 
119829 
119830 
119831 
119832 
119833 
119834 
119835 
119836 
119837 
119838 
119839 
119840 
119841 
119842 
119843 
119844 
119845 
119846 
119847 
119848 
119849 
119850 
119851 
119852 
119853 
119854 
119855 
119856 
119857 
119858 
119859 
119860 
119861 
119862 
119863 
119864 
119865 
119866 
119867 
119868 
119869 
119870 
119871 
119872 
119873 
119874 
119875 
119876 
119877 
119878 
119879 
119880 
119881 
119882 
119883 
119884 
119885 
119886 
119887 
119888 
119889 
119890 
119891 
119892 
119893 
119894 
119895 
119896 
119897 
119898 
119899 
119900 
119901 
119902 
119903 
119904 
119905 
119906 
119907 
119908 
119909 
119910 
119911 
119912 
119913 
119914 
119915 
119916 
119917 
119918 
119919 
119920 
119921 
119922 
119923 
119924 
119925 
119926 
119927 
119928 
119929 
119930 
119931 
119932 
119933 
119934 
119935 
119936 
119937 
119938 
119939 
119940 
119941 
119942 
119943 
119944 
119945 
119946 
119947 
119948 
119949 
119950 
119951 
119952 
119953 
119954 
119955 
119956 
119957 
119958 
119959 
119960 
119961 
119962 
119963 
119964 
119965 
119966 
119967 
119968 
119969 
119970 
119971 
119972 
119973 
119974 
119975 
119976 
119977 
119978 
119979 
119980 
119981 
119982 
119983 
119984 
119985 
119986 
119987 
119988 
119989 
119990 
119991 
119992 
119993 
119994 
119995 
119996 
119997 
119998 
119999 
120000 
120001 
120002 
120003 
120004 
120005 
120006 
120007 
120008 
120009 
120010 
120011 
120012 
120013 
120014 
120015 
120016 
120017 
120018 
120019 
120020 
120021 
120022 
120023 
120024 
120025 
120026 
120027 
120028 
120029 
120030 
120031 
120032 
120033 
120034 
120035 
120036 
120037 
120038 
120039 
120040 
120041 
120042 
120043 
120044 
120045 
120046 
120047 
120048 
120049 
120050 
120051 
120052 
120053 
120054 
120055 
120056 
120057 
120058 
120059 
120060 
120061 
120062 
120063 
120064 
120065 
120066 
120067 
120068 
120069 
120070 
120071 
120072 
120073 
120074 
120075 
120076 
120077 
120078 
120079 
120080 
120081 
120082 
120083 
120084 
120085 
120086 
120087 
120088 
120089 
120090 
120091 
120092 
120093 
120094 
120095 
120096 
120097 
120098 
120099 
120100 
120101 
120102 
120103 
120104 
120105 
120106 
120107 
120108 
120109 
120110 
120111 
120112 
120113 
120114 
120115 
120116 
120117 
120118 
120119 
120120 
120121 
120122 
120123 
120124 
120125 
120126 
120127 
120128 
120129 
120130 
120131 
120132 
120133 
120134 
120135 
120136 
120137 
120138 
120139 
120140 
120141 
120142 
120143 
120144 
120145 
120146 
120147 
120148 
120149 
120150 
120151 
120152 
120153 
120154 
120155 
120156 
120157 
120158 
120159 
120160 
120161 
120162 
120163 
120164 
120165 
120166 
120167 
120168 
120169 
120170 
120171 
120172 
120173 
120174 
120175 
120176 
120177 
120178 
120179 
120180 
120181 
120182 
120183 
120184 
120185 
120186 
120187 
120188 
120189 
120190 
120191 
120192 
120193 
120194 
120195 
120196 
120197 
120198 
120199 
120200 
120201 
120202 
120203 
120204 
120205 
120206 
120207 
120208 
120209 
120210 
120211 
120212 
120213 
120214 
120215 
120216 
120217 
120218 
120219 
120220 
120221 
120222 
120223 
120224 
120225 
120226 
120227 
120228 
120229 
120230 
120231 
120232 
120233 
120234 
120235 
120236 
120237 
120238 
120239 
120240 
120241 
120242 
120243 
120244 
120245 
120246 
120247 
120248 
120249 
120250 
120251 
120252 
120253 
120254 
120255 
120256 
120257 
120258 
120259 
120260 
120261 
120262 
120263 
120264 
120265 
120266 
120267 
120268 
120269 
120270 
120271 
120272 
120273 
120274 
120275 
120276 
120277 
120278 
120279 
120280 
120281 
120282 
120283 
120284 
120285 
120286 
120287 
120288 
120289 
120290 
120291 
120292 
120293 
120294 
120295 
120296 
120297 
120298 
120299 
120300 
120301 
120302 
120303 
120304 
120305 
120306 
120307 
120308 
120309 
120310 
120311 
120312 
120313 
120314 
120315 
120316 
120317 
120318 
120319 
120320 
120321 
120322 
120323 
120324 
120325 
120326 
120327 
120328 
120329 
120330 
120331 
120332 
120333 
120334 
120335 
120336 
120337 
120338 
120339 
120340 
120341 
120342 
120343 
120344 
120345 
120346 
120347 
120348 
120349 
120350 
120351 
120352 
120353 
120354 
120355 
120356 
120357 
120358 
120359 
120360 
120361 
120362 
120363 
120364 
120365 
120366 
120367 
120368 
120369 
120370 
120371 
120372 
120373 
120374 
120375 
120376 
120377 
120378 
120379 
120380 
120381 
120382 
120383 
120384 
120385 
120386 
120387 
120388 
120389 
120390 
120391 
120392 
120393 
120394 
120395 
120396 
120397 
120398 
120399 
120400 
120401 
120402 
120403 
120404 
120405 
120406 
120407 
120408 
120409 
120410 
120411 
120412 
120413 
120414 
120415 
120416 
120417 
120418 
120419 
120420 
120421 
120422 
120423 
120424 
120425 
120426 
120427 
120428 
120429 
120430 
120431 
120432 
120433 
120434 
120435 
120436 
120437 
120438 
120439 
120440 
120441 
120442 
120443 
120444 
120445 
120446 
120447 
120448 
120449 
120450 
120451 
120452 
120453 
120454 
120455 
120456 
120457 
120458 
120459 
120460 
120461 
120462 
120463 
120464 
120465 
120466 
120467 
120468 
120469 
120470 
120471 
120472 
120473 
120474 
120475 
120476 
120477 
120478 
120479 
120480 
120481 
120482 
120483 
120484 
120485 
120486 
120487 
120488 
120489 
120490 
120491 
120492 
120493 
120494 
120495 
120496 
120497 
120498 
120499 
120500 
120501 
120502 
120503 
120504 
120505 
120506 
120507 
120508 
120509 
120510 
120511 
120512 
120513 
120514 
120515 
120516 
120517 
120518 
120519 
120520 
120521 
120522 
120523 
120524 
120525 
120526 
120527 
120528 
120529 
120530 
120531 
120532 
120533 
120534 
120535 
120536 
120537 
120538 
120539 
120540 
120541 
120542 
120543 
120544 
120545 
120546 
120547 
120548 
120549 
120550 
120551 
120552 
120553 
120554 
120555 
120556 
120557 
120558 
120559 
120560 
120561 
120562 
120563 
120564 
120565 
120566 
120567 
120568 
120569 
120570 
120571 
120572 
120573 
120574 
120575 
120576 
120577 
120578 
120579 
120580 
120581 
120582 
120583 
120584 
120585 
120586 
120587 
120588 
120589 
120590 
120591 
120592 
120593 
120594 
120595 
120596 
120597 
120598 
120599 
120600 
120601 
120602 
120603 
120604 
120605 
120606 
120607 
120608 
120609 
120610 
120611 
120612 
120613 
120614 
120615 
120616 
120617 
120618 
120619 
120620 
120621 
120622 
120623 
120624 
120625 
120626 
120627 
120628 
120629 
120630 
120631 
120632 
120633 
120634 
120635 
120636 
120637 
120638 
120639 
120640 
120641 
120642 
120643 
120644 
120645 
120646 
120647 
120648 
120649 
120650 
120651 
120652 
120653 
120654 
120655 
120656 
120657 
120658 
120659 
120660 
120661 
120662 
120663 
120664 
120665 
120666 
120667 
120668 
120669 
120670 
120671 
120672 
120673 
120674 
120675 
120676 
120677 
120678 
120679 
120680 
120681 
120682 
120683 
120684 
120685 
120686 
120687 
120688 
120689 
120690 
120691 
120692 
120693 
120694 
120695 
120696 
120697 
120698 
120699 
120700 
120701 
120702 
120703 
120704 
120705 
120706 
120707 
120708 
120709 
120710 
120711 
120712 
120713 
120714 
120715 
120716 
120717 
120718 
120719 
120720 
120721 
120722 
120723 
120724 
120725 
120726 
120727 
120728 
120729 
120730 
120731 
120732 
120733 
120734 
120735 
120736 
120737 
120738 
120739 
120740 
120741 
120742 
120743 
120744 
120745 
120746 
120747 
120748 
120749 
120750 
120751 
120752 
120753 
120754 
120755 
120756 
120757 
120758 
120759 
120760 
120761 
120762 
120763 
120764 
120765 
120766 
120767 
120768 
120769 
120770 
120771 
120772 
120773 
120774 
120775 
120776 
120777 
120778 
120779 
120780 
120781 
120782 
120783 
120784 
120785 
120786 
120787 
120788 
120789 
120790 
120791 
120792 
120793 
120794 
120795 
120796 
120797 
120798 
120799 
120800 
120801 
120802 
120803 
120804 
120805 
120806 
120807 
120808 
120809 
120810 
120811 
120812 
120813 
120814 
120815 
120816 
120817 
120818 
120819 
120820 
120821 
120822 
120823 
120824 
120825 
120826 
120827 
120828 
120829 
120830 
120831 
120832 
120833 
120834 
120835 
120836 
120837 
120838 
120839 
120840 
120841 
120842 
120843 
120844 
120845 
120846 
120847 
120848 
120849 
120850 
120851 
120852 
120853 
120854 
120855 
120856 
120857 
120858 
120859 
120860 
120861 
120862 
120863 
120864 
120865 
120866 
120867 
120868 
120869 
120870 
120871 
120872 
120873 
120874 
120875 
120876 
120877 
120878 
120879 
120880 
120881 
120882 
120883 
120884 
120885 
120886 
120887 
120888 
120889 
120890 
120891 
120892 
120893 
120894 
120895 
120896 
120897 
120898 
120899 
120900 
120901 
120902 
120903 
120904 
120905 
120906 
120907 
120908 
120909 
120910 
120911 
120912 
120913 
120914 
120915 
120916 
120917 
120918 
120919 
120920 
120921 
120922 
120923 
120924 
120925 
120926 
120927 
120928 
120929 
120930 
120931 
120932 
120933 
120934 
120935 
120936 
120937 
120938 
120939 
120940 
120941 
120942 
120943 
120944 
120945 
120946 
120947 
120948 
120949 
120950 
120951 
120952 
120953 
120954 
120955 
120956 
120957 
120958 
120959 
120960 
120961 
120962 
120963 
120964 
120965 
120966 
120967 
120968 
120969 
120970 
120971 
120972 
120973 
120974 
120975 
120976 
120977 
120978 
120979 
120980 
120981 
120982 
120983 
120984 
120985 
120986 
120987 
120988 
120989 
120990 
120991 
120992 
120993 
120994 
120995 
120996 
120997 
120998 
120999 
121000 
121001 
121002 
121003 
121004 
121005 
121006 
121007 
121008 
121009 
121010 
121011 
121012 
121013 
121014 
121015 
121016 
121017 
121018 
121019 
121020 
121021 
121022 
121023 
121024 
121025 
121026 
121027 
121028 
121029 
121030 
121031 
121032 
121033 
121034 
121035 
121036 
121037 
121038 
121039 
121040 
121041 
121042 
121043 
121044 
121045 
121046 
121047 
121048 
121049 
121050 
121051 
121052 
121053 
121054 
121055 
121056 
121057 
121058 
121059 
121060 
121061 
121062 
121063 
121064 
121065 
121066 
121067 
121068 
121069 
121070 
121071 
121072 
121073 
121074 
121075 
121076 
121077 
121078 
121079 
121080 
121081 
121082 
121083 
121084 
121085 
121086 
121087 
121088 
121089 
121090 
121091 
121092 
121093 
121094 
121095 
121096 
121097 
121098 
121099 
121100 
121101 
121102 
121103 
121104 
121105 
121106 
121107 
121108 
121109 
121110 
121111 
121112 
121113 
121114 
121115 
121116 
121117 
121118 
121119 
121120 
121121 
121122 
121123 
121124 
121125 
121126 
121127 
121128 
121129 
121130 
121131 
121132 
121133 
121134 
121135 
121136 
121137 
121138 
121139 
121140 
121141 
121142 
121143 
121144 
121145 
121146 
121147 
121148 
121149 
121150 
121151 
121152 
121153 
121154 
121155 
121156 
121157 
121158 
121159 
121160 
121161 
121162 
121163 
121164 
121165 
121166 
121167 
121168 
121169 
121170 
121171 
121172 
121173 
121174 
121175 
121176 
121177 
121178 
121179 
121180 
121181 
121182 
121183 
121184 
121185 
121186 
121187 
121188 
121189 
121190 
121191 
121192 
121193 
121194 
121195 
121196 
121197 
121198 
121199 
121200 
121201 
121202 
121203 
121204 
121205 
121206 
121207 
121208 
121209 
121210 
121211 
121212 
121213 
121214 
121215 
121216 
121217 
121218 
121219 
121220 
121221 
121222 
121223 
121224 
121225 
121226 
121227 
121228 
121229 
121230 
121231 
121232 
121233 
121234 
121235 
121236 
121237 
121238 
121239 
121240 
121241 
121242 
121243 
121244 
121245 
121246 
121247 
121248 
121249 
121250 
121251 
121252 
121253 
121254 
121255 
121256 
121257 
121258 
121259 
121260 
121261 
121262 
121263 
121264 
121265 
121266 
121267 
121268 
121269 
121270 
121271 
121272 
121273 
121274 
121275 
121276 
121277 
121278 
121279 
121280 
121281 
121282 
121283 
121284 
121285 
121286 
121287 
121288 
121289 
121290 
121291 
121292 
121293 
121294 
121295 
121296 
121297 
121298 
121299 
121300 
121301 
121302 
121303 
121304 
121305 
121306 
121307 
121308 
121309 
121310 
121311 
121312 
121313 
121314 
121315 
121316 
121317 
121318 
121319 
121320 
121321 
121322 
121323 
121324 
121325 
121326 
121327 
121328 
121329 
121330 
121331 
121332 
121333 
121334 
121335 
121336 
121337 
121338 
121339 
121340 
121341 
121342 
121343 
121344 
121345 
121346 
121347 
121348 
121349 
121350 
121351 
121352 
121353 
121354 
121355 
121356 
121357 
121358 
121359 
121360 
121361 
121362 
121363 
121364 
121365 
121366 
121367 
121368 
121369 
121370 
121371 
121372 
121373 
121374 
121375 
121376 
121377 
121378 
121379 
121380 
121381 
121382 
121383 
121384 
121385 
121386 
121387 
121388 