# vtk DataFile Version 2.0
Mesquite Mesh
ASCII
DATASET UNSTRUCTURED_GRID
POINTS 203 float
2 0 0
1.95324 -0.429941 0
2.07419 -0.456563 0
2.12384 0 0
2.24298 -0.493717 0
2.29667 0 0
2.47855 -0.54557 0
2.53788 0 0
2.80731 -0.617936 0
2.87452 0 0
3.26614 -0.718931 0
3.34433 0 0
3.90648 -0.859882 0
4 0 0
1.81515 -0.839778 0
1.92755 -0.891778 0
2.08441 -0.964348 0
2.30332 -1.06563 0
2.60884 -1.20698 0
3.03523 -1.40425 0
3.6303 -1.67956 0
1.59219 -1.21035 0
1.69077 -1.28529 0
1.82837 -1.38989 0
2.02039 -1.53586 0
2.28838 -1.73958 0
2.6624 -2.0239 0
3.18437 -2.4207 0
1.29477 -1.52432 0
1.37495 -1.61871 0
1.48684 -1.75044 0
1.64299 -1.93428 0
1.86092 -2.19085 0
2.16507 -2.54892 0
2.58955 -3.04865 0
0.936817 -1.76702 0
0.994825 -1.87644 0
1.07578 -2.02914 0
1.18877 -2.24225 0
1.34645 -2.53967 0
1.56651 -2.95475 0
1.87363 -3.53405 0
0.535057 -1.9271 0
0.568188 -2.04643 0
0.614425 -2.21296 0
0.678956 -2.44538 0
0.769015 -2.76974 0
0.894702 -3.22243 0
1.07011 -3.8542 0
0.108278 -1.99707 0
0.114982 -2.12073 0
0.124339 -2.29331 0
0.137398 -2.53416 0
0.155623 -2.8703 0
0.181058 -3.33942 0
0.216556 -3.99413 0
-0.323564 -1.97365 0
-0.343599 -2.09586 0
-0.371561 -2.26642 0
-0.410584 -2.50445 0
-0.465045 -2.83665 0
-0.541052 -3.30027 0
-0.647128 -3.94731 0
-0.740276 -1.85795 0
-0.786114 -1.973 0
-0.850087 -2.13356 0
-0.939367 -2.35763 0
-1.06397 -2.67036 0
-1.23786 -3.1068 0
-1.48055 -3.71591 0
-1.12237 -1.65538 0
-1.19187 -1.75788 0
-1.28886 -1.90093 0
-1.42423 -2.10058 0
-1.61314 -2.37921 0
-1.87679 -2.76806 0
-2.24475 -3.31076 0
-1.45199 -1.3754 0
-1.5419 -1.46056 0
-1.66738 -1.57942 0
-1.84249 -1.7453 0
-2.08689 -1.9768 0
-2.42797 -2.29989 0
-2.90398 -2.7508 0
-1.71371 -1.03111 0
-1.81983 -1.09495 0
-1.96792 -1.18406 0
-2.1746 -1.30842 0
-2.46305 -1.48197 0
-2.86561 -1.72418 0
-3.42743 -2.06222 0
-1.89531 -0.638603 0
-2.01266 -0.678146 0
-2.17645 -0.733332 0
-2.40503 -0.81035 0
-2.72404 -0.917838 0
-3.16926 -1.06785 0
-3.79061 -1.27721 0
-1.98828 -0.216238 0
-2.11139 -0.229628 0
-2.28321 -0.248314 0
-2.52301 -0.274393 0
-2.85767 -0.31079 0
-3.32472 -0.361585 0
-3.97655 -0.432476 0
-1.98828 0.216238 0
-2.11139 0.229628 0
-2.28321 0.248314 0
-2.52301 0.274393 0
-2.85767 0.31079 0
-3.32472 0.361585 0
-3.97655 0.432476 0
-1.89531 0.638603 0
-2.01266 0.678146 0
-2.17645 0.733332 0
-2.40503 0.81035 0
-2.72404 0.917838 0
-3.16926 1.06785 0
-3.79061 1.27721 0
-1.71371 1.03111 0
-1.81983 1.09495 0
-1.96792 1.18406 0
-2.1746 1.30842 0
-2.46305 1.48197 0
-2.86561 1.72418 0
-3.42743 2.06222 0
-1.45199 1.3754 0
-1.5419 1.46056 0
-1.66738 1.57942 0
-1.84249 1.7453 0
-2.08689 1.9768 0
-2.42797 2.29989 0
-2.90398 2.7508 0
-1.12237 1.65538 0
-1.19187 1.75788 0
-1.28886 1.90093 0
-1.42423 2.10058 0
-1.61314 2.37921 0
-1.87679 2.76806 0
-2.24475 3.31076 0
-0.740276 1.85795 0
-0.786114 1.973 0
-0.850087 2.13356 0
-0.939367 2.35763 0
-1.06397 2.67036 0
-1.23786 3.1068 0
-1.48055 3.71591 0
-0.323564 1.97365 0
-0.343599 2.09586 0
-0.371561 2.26642 0
-0.410584 2.50445 0
-0.465045 2.83665 0
-0.541052 3.30027 0
-0.647128 3.94731 0
0.108278 1.99707 0
0.114982 2.12073 0
0.124339 2.29331 0
0.137398 2.53416 0
0.155623 2.8703 0
0.181058 3.33942 0
0.216556 3.99413 0
0.535057 1.9271 0
0.568188 2.04643 0
0.614425 2.21296 0
0.678956 2.44538 0
0.769015 2.76974 0
0.894702 3.22243 0
1.07011 3.8542 0
0.936817 1.76702 0
0.994825 1.87644 0
1.07578 2.02914 0
1.18877 2.24225 0
1.34645 2.53967 0
1.56651 2.95475 0
1.87363 3.53405 0
1.29477 1.52432 0
1.37495 1.61871 0
1.48684 1.75044 0
1.64299 1.93428 0
1.86092 2.19085 0
2.16507 2.54892 0
2.58955 3.04865 0
1.59219 1.21035 0
1.69077 1.28529 0
1.82837 1.38989 0
2.02039 1.53586 0
2.28838 1.73958 0
2.6624 2.0239 0
3.18437 2.4207 0
1.81515 0.839778 0
1.92755 0.891778 0
2.08441 0.964348 0
2.30332 1.06563 0
2.60884 1.20698 0
3.03523 1.40425 0
3.6303 1.67956 0
1.95324 0.429941 0
2.07419 0.456563 0
2.24298 0.493717 0
2.47855 0.54557 0
2.80731 0.617936 0
3.26614 0.718931 0
3.90648 0.859882 0
CELLS 174 870
4 0 1 2 3
4 3 2 4 5
4 5 4 6 7
4 7 6 8 9
4 9 8 10 11
4 11 10 12 13
4 1 14 15 2
4 2 15 16 4
4 4 16 17 6
4 6 17 18 8
4 8 18 19 10
4 10 19 20 12
4 14 21 22 15
4 15 22 23 16
4 16 23 24 17
4 17 24 25 18
4 18 25 26 19
4 19 26 27 20
4 21 28 29 22
4 22 29 30 23
4 23 30 31 24
4 24 31 32 25
4 25 32 33 26
4 26 33 34 27
4 28 35 36 29
4 29 36 37 30
4 30 37 38 31
4 31 38 39 32
4 32 39 40 33
4 33 40 41 34
4 35 42 43 36
4 36 43 44 37
4 37 44 45 38
4 38 45 46 39
4 39 46 47 40
4 40 47 48 41
4 42 49 50 43
4 43 50 51 44
4 44 51 52 45
4 45 52 53 46
4 46 53 54 47
4 47 54 55 48
4 49 56 57 50
4 50 57 58 51
4 51 58 59 52
4 52 59 60 53
4 53 60 61 54
4 54 61 62 55
4 56 63 64 57
4 57 64 65 58
4 58 65 66 59
4 59 66 67 60
4 60 67 68 61
4 61 68 69 62
4 63 70 71 64
4 64 71 72 65
4 65 72 73 66
4 66 73 74 67
4 67 74 75 68
4 68 75 76 69
4 70 77 78 71
4 71 78 79 72
4 72 79 80 73
4 73 80 81 74
4 74 81 82 75
4 75 82 83 76
4 77 84 85 78
4 78 85 86 79
4 79 86 87 80
4 80 87 88 81
4 81 88 89 82
4 82 89 90 83
4 84 91 92 85
4 85 92 93 86
4 86 93 94 87
4 87 94 95 88
4 88 95 96 89
4 89 96 97 90
4 91 98 99 92
4 92 99 100 93
4 93 100 101 94
4 94 101 102 95
4 95 102 103 96
4 96 103 104 97
4 98 105 106 99
4 99 106 107 100
4 100 107 108 101
4 101 108 109 102
4 102 109 110 103
4 103 110 111 104
4 105 112 113 106
4 106 113 114 107
4 107 114 115 108
4 108 115 116 109
4 109 116 117 110
4 110 117 118 111
4 112 119 120 113
4 113 120 121 114
4 114 121 122 115
4 115 122 123 116
4 116 123 124 117
4 117 124 125 118
4 119 126 127 120
4 120 127 128 121
4 121 128 129 122
4 122 129 130 123
4 123 130 131 124
4 124 131 132 125
4 126 133 134 127
4 127 134 135 128
4 128 135 136 129
4 129 136 137 130
4 130 137 138 131
4 131 138 139 132
4 133 140 141 134
4 134 141 142 135
4 135 142 143 136
4 136 143 144 137
4 137 144 145 138
4 138 145 146 139
4 140 147 148 141
4 141 148 149 142
4 142 149 150 143
4 143 150 151 144
4 144 151 152 145
4 145 152 153 146
4 147 154 155 148
4 148 155 156 149
4 149 156 157 150
4 150 157 158 151
4 151 158 159 152
4 152 159 160 153
4 154 161 162 155
4 155 162 163 156
4 156 163 164 157
4 157 164 165 158
4 158 165 166 159
4 159 166 167 160
4 161 168 169 162
4 162 169 170 163
4 163 170 171 164
4 164 171 172 165
4 165 172 173 166
4 166 173 174 167
4 168 175 176 169
4 169 176 177 170
4 170 177 178 171
4 171 178 179 172
4 172 179 180 173
4 173 180 181 174
4 175 182 183 176
4 176 183 184 177
4 177 184 185 178
4 178 185 186 179
4 179 186 187 180
4 180 187 188 181
4 182 189 190 183
4 183 190 191 184
4 184 191 192 185
4 185 192 193 186
4 186 193 194 187
4 187 194 195 188
4 189 196 197 190
4 190 197 198 191
4 191 198 199 192
4 192 199 200 193
4 193 200 201 194
4 194 201 202 195
4 196 0 3 197
4 197 3 5 198
4 198 5 7 199
4 199 7 9 200
4 200 9 11 201
4 201 11 13 202
CELL_TYPES 174
9
9
9
9
9
9
9
9
9
9
9
9
9
9
9
9
9
9
9
9
9
9
9
9
9
9
9
9
9
9
9
9
9
9
9
9
9
9
9
9
9
9
9
9
9
9
9
9
9
9
9
9
9
9
9
9
9
9
9
9
9
9
9
9
9
9
9
9
9
9
9
9
9
9
9
9
9
9
9
9
9
9
9
9
9
9
9
9
9
9
9
9
9
9
9
9
9
9
9
9
9
9
9
9
9
9
9
9
9
9
9
9
9
9
9
9
9
9
9
9
9
9
9
9
9
9
9
9
9
9
9
9
9
9
9
9
9
9
9
9
9
9
9
9
9
9
9
9
9
9
9
9
9
9
9
9
9
9
9
9
9
9
9
9
9
9
9
9
9
9
9
9
9
9
POINT_DATA 203
SCALARS fixed bit
LOOKUP_TABLE default
1
1
0
0
0
0
0
0
0
0
0
0
1
1
1
0
0
0
0
0
1
1
0
0
0
0
0
1
1
0
0
0
0
0
1
1
0
0
0
0
0
1
1
0
0
0
0
0
1
1
0
0
0
0
0
1
1
0
0
0
0
0
1
1
0
0
0
0
0
1
1
0
0
0
0
0
1
1
0
0
0
0
0
1
1
0
0
0
0
0
1
1
0
0
0
0
0
1
1
0
0
0
0
0
1
1
0
0
0
0
0
1
1
0
0
0
0
0
1
1
0
0
0
0
0
1
1
0
0
0
0
0
1
1
0
0
0
0
0
1
1
0
0
0
0
0
1
1
0
0
0
0
0
1
1
0
0
0
0
0
1
1
0
0
0
0
0
1
1
0
0
0
0
0
1
1
0
0
0
0
0
1
1
0
0
0
0
0
1
1
0
0
0
0
0
1
1
0
0
0
0
0
1
