# vtk DataFile Version 2.0
Mesquite Mesh original_mesh
ASCII
DATASET UNSTRUCTURED_GRID
POINTS 241 float
0 0 0
0.1 0 0
0.0965926 0.0258819 0
0.0866025 0.05 0
0.0707107 0.0707107 0
0.05 0.0866025 0
0.0258819 0.0965926 0
6.12323e-18 0.1 0
-0.0258819 0.0965926 0
-0.05 0.0866025 0
-0.0707107 0.0707107 0
-0.0866025 0.05 0
-0.0965926 0.0258819 0
-0.1 1.22465e-17 0
-0.0965926 -0.0258819 0
-0.0866025 -0.05 0
-0.0707107 -0.0707107 0
-0.05 -0.0866025 0
-0.0258819 -0.0965926 0
-1.83697e-17 -0.1 0
0.0258819 -0.0965926 0
0.05 -0.0866025 0
0.0707107 -0.0707107 0
0.0866025 -0.05 0
0.0965926 -0.0258819 0
0.2 0 0
0.193185 0.0517638 0
0.173205 0.1 0
0.141421 0.141421 0
0.1 0.173205 0
0.0517638 0.193185 0
1.22465e-17 0.2 0
-0.0517638 0.193185 0
-0.1 0.173205 0
-0.141421 0.141421 0
-0.173205 0.1 0
-0.193185 0.0517638 0
-0.2 2.44929e-17 0
-0.193185 -0.0517638 0
-0.173205 -0.1 0
-0.141421 -0.141421 0
-0.1 -0.173205 0
-0.0517638 -0.193185 0
-3.67394e-17 -0.2 0
0.0517638 -0.193185 0
0.1 -0.173205 0
0.141421 -0.141421 0
0.173205 -0.1 0
0.193185 -0.0517638 0
0.3 0 0
0.289778 0.0776457 0
0.259808 0.15 0
0.212132 0.212132 0
0.15 0.259808 0
0.0776457 0.289778 0
1.83697e-17 0.3 0
-0.0776457 0.289778 0
-0.15 0.259808 0
-0.212132 0.212132 0
-0.259808 0.15 0
-0.289778 0.0776457 0
-0.3 3.67394e-17 0
-0.289778 -0.0776457 0
-0.259808 -0.15 0
-0.212132 -0.212132 0
-0.15 -0.259808 0
-0.0776457 -0.289778 0
-5.51091e-17 -0.3 0
0.0776457 -0.289778 0
0.15 -0.259808 0
0.212132 -0.212132 0
0.259808 -0.15 0
0.289778 -0.0776457 0
0.4 0 0
0.38637 0.103528 0
0.34641 0.2 0
0.282843 0.282843 0
0.2 0.34641 0
0.103528 0.38637 0
2.44929e-17 0.4 0
-0.103528 0.38637 0
-0.2 0.34641 0
-0.282843 0.282843 0
-0.34641 0.2 0
-0.38637 0.103528 0
-0.4 4.89859e-17 0
-0.38637 -0.103528 0
-0.34641 -0.2 0
-0.282843 -0.282843 0
-0.2 -0.34641 0
-0.103528 -0.38637 0
-7.34788e-17 -0.4 0
0.103528 -0.38637 0
0.2 -0.34641 0
0.282843 -0.282843 0
0.34641 -0.2 0
0.38637 -0.103528 0
0.5 0 0
0.482963 0.12941 0
0.433013 0.25 0
0.353553 0.353553 0
0.25 0.433013 0
0.12941 0.482963 0
3.06162e-17 0.5 0
-0.12941 0.482963 0
-0.25 0.433013 0
-0.353553 0.353553 0
-0.433013 0.25 0
-0.482963 0.12941 0
-0.5 6.12323e-17 0
-0.482963 -0.12941 0
-0.433013 -0.25 0
-0.353553 -0.353553 0
-0.25 -0.433013 0
-0.12941 -0.482963 0
-9.18485e-17 -0.5 0
0.12941 -0.482963 0
0.25 -0.433013 0
0.353553 -0.353553 0
0.433013 -0.25 0
0.482963 -0.12941 0
0.6 0 0
0.579555 0.155291 0
0.519615 0.3 0
0.424264 0.424264 0
0.3 0.519615 0
0.155291 0.579555 0
3.67394e-17 0.6 0
-0.155291 0.579555 0
-0.3 0.519615 0
-0.424264 0.424264 0
-0.519615 0.3 0
-0.579555 0.155291 0
-0.6 7.34788e-17 0
-0.579555 -0.155291 0
-0.519615 -0.3 0
-0.424264 -0.424264 0
-0.3 -0.519615 0
-0.155291 -0.579555 0
-1.10218e-16 -0.6 0
0.155291 -0.579555 0
0.3 -0.519615 0
0.424264 -0.424264 0
0.519615 -0.3 0
0.579555 -0.155291 0
0.7 0 0
0.676148 0.181173 0
0.606218 0.35 0
0.494975 0.494975 0
0.35 0.606218 0
0.181173 0.676148 0
4.28626e-17 0.7 0
-0.181173 0.676148 0
-0.35 0.606218 0
-0.494975 0.494975 0
-0.606218 0.35 0
-0.676148 0.181173 0
-0.7 8.57253e-17 0
-0.676148 -0.181173 0
-0.606218 -0.35 0
-0.494975 -0.494975 0
-0.35 -0.606218 0
-0.181173 -0.676148 0
-1.28588e-16 -0.7 0
0.181173 -0.676148 0
0.35 -0.606218 0
0.494975 -0.494975 0
0.606218 -0.35 0
0.676148 -0.181173 0
0.8 0 0
0.772741 0.207055 0
0.69282 0.4 0
0.565685 0.565685 0
0.4 0.69282 0
0.207055 0.772741 0
4.89859e-17 0.8 0
-0.207055 0.772741 0
-0.4 0.69282 0
-0.565685 0.565685 0
-0.69282 0.4 0
-0.772741 0.207055 0
-0.8 9.79717e-17 0
-0.772741 -0.207055 0
-0.69282 -0.4 0
-0.565685 -0.565685 0
-0.4 -0.69282 0
-0.207055 -0.772741 0
-1.46958e-16 -0.8 0
0.207055 -0.772741 0
0.4 -0.69282 0
0.565685 -0.565685 0
0.69282 -0.4 0
0.772741 -0.207055 0
0.9 0 0
0.869333 0.232937 0
0.779423 0.45 0
0.636396 0.636396 0
0.45 0.779423 0
0.232937 0.869333 0
5.51091e-17 0.9 0
-0.232937 0.869333 0
-0.45 0.779423 0
-0.636396 0.636396 0
-0.779423 0.45 0
-0.869333 0.232937 0
-0.9 1.10218e-16 0
-0.869333 -0.232937 0
-0.779423 -0.45 0
-0.636396 -0.636396 0
-0.45 -0.779423 0
-0.232937 -0.869333 0
-1.65327e-16 -0.9 0
0.232937 -0.869333 0
0.45 -0.779423 0
0.636396 -0.636396 0
0.779423 -0.45 0
0.869333 -0.232937 0
1 0 0
0.965926 0.258819 0
0.866025 0.5 0
0.707107 0.707107 0
0.5 0.866025 0
0.258819 0.965926 0
6.12323e-17 1 0
-0.258819 0.965926 0
-0.5 0.866025 0
-0.707107 0.707107 0
-0.866025 0.5 0
-0.965926 0.258819 0
-1 1.22465e-16 0
-0.965926 -0.258819 0
-0.866025 -0.5 0
-0.707107 -0.707107 0
-0.5 -0.866025 0
-0.258819 -0.965926 0
-1.83697e-16 -1 0
0.258819 -0.965926 0
0.5 -0.866025 0
0.707107 -0.707107 0
0.866025 -0.5 0
0.965926 -0.258819 0
CELLS 240 1176
3 0 1 2
3 0 2 3
3 0 3 4
3 0 4 5
3 0 5 6
3 0 6 7
3 0 7 8
3 0 8 9
3 0 9 10
3 0 10 11
3 0 11 12
3 0 12 13
3 0 13 14
3 0 14 15
3 0 15 16
3 0 16 17
3 0 17 18
3 0 18 19
3 0 19 20
3 0 20 21
3 0 21 22
3 0 22 23
3 0 23 24
3 0 24 1
4 1 25 26 2
4 2 26 27 3
4 3 27 28 4
4 4 28 29 5
4 5 29 30 6
4 6 30 31 7
4 7 31 32 8
4 8 32 33 9
4 9 33 34 10
4 10 34 35 11
4 11 35 36 12
4 12 36 37 13
4 13 37 38 14
4 14 38 39 15
4 15 39 40 16
4 16 40 41 17
4 17 41 42 18
4 18 42 43 19
4 19 43 44 20
4 20 44 45 21
4 21 45 46 22
4 22 46 47 23
4 23 47 48 24
4 24 48 25 1
4 25 49 50 26
4 26 50 51 27
4 27 51 52 28
4 28 52 53 29
4 29 53 54 30
4 30 54 55 31
4 31 55 56 32
4 32 56 57 33
4 33 57 58 34
4 34 58 59 35
4 35 59 60 36
4 36 60 61 37
4 37 61 62 38
4 38 62 63 39
4 39 63 64 40
4 40 64 65 41
4 41 65 66 42
4 42 66 67 43
4 43 67 68 44
4 44 68 69 45
4 45 69 70 46
4 46 70 71 47
4 47 71 72 48
4 48 72 49 25
4 49 73 74 50
4 50 74 75 51
4 51 75 76 52
4 52 76 77 53
4 53 77 78 54
4 54 78 79 55
4 55 79 80 56
4 56 80 81 57
4 57 81 82 58
4 58 82 83 59
4 59 83 84 60
4 60 84 85 61
4 61 85 86 62
4 62 86 87 63
4 63 87 88 64
4 64 88 89 65
4 65 89 90 66
4 66 90 91 67
4 67 91 92 68
4 68 92 93 69
4 69 93 94 70
4 70 94 95 71
4 71 95 96 72
4 72 96 73 49
4 73 97 98 74
4 74 98 99 75
4 75 99 100 76
4 76 100 101 77
4 77 101 102 78
4 78 102 103 79
4 79 103 104 80
4 80 104 105 81
4 81 105 106 82
4 82 106 107 83
4 83 107 108 84
4 84 108 109 85
4 85 109 110 86
4 86 110 111 87
4 87 111 112 88
4 88 112 113 89
4 89 113 114 90
4 90 114 115 91
4 91 115 116 92
4 92 116 117 93
4 93 117 118 94
4 94 118 119 95
4 95 119 120 96
4 96 120 97 73
4 97 121 122 98
4 98 122 123 99
4 99 123 124 100
4 100 124 125 101
4 101 125 126 102
4 102 126 127 103
4 103 127 128 104
4 104 128 129 105
4 105 129 130 106
4 106 130 131 107
4 107 131 132 108
4 108 132 133 109
4 109 133 134 110
4 110 134 135 111
4 111 135 136 112
4 112 136 137 113
4 113 137 138 114
4 114 138 139 115
4 115 139 140 116
4 116 140 141 117
4 117 141 142 118
4 118 142 143 119
4 119 143 144 120
4 120 144 121 97
4 121 145 146 122
4 122 146 147 123
4 123 147 148 124
4 124 148 149 125
4 125 149 150 126
4 126 150 151 127
4 127 151 152 128
4 128 152 153 129
4 129 153 154 130
4 130 154 155 131
4 131 155 156 132
4 132 156 157 133
4 133 157 158 134
4 134 158 159 135
4 135 159 160 136
4 136 160 161 137
4 137 161 162 138
4 138 162 163 139
4 139 163 164 140
4 140 164 165 141
4 141 165 166 142
4 142 166 167 143
4 143 167 168 144
4 144 168 145 121
4 145 169 170 146
4 146 170 171 147
4 147 171 172 148
4 148 172 173 149
4 149 173 174 150
4 150 174 175 151
4 151 175 176 152
4 152 176 177 153
4 153 177 178 154
4 154 178 179 155
4 155 179 180 156
4 156 180 181 157
4 157 181 182 158
4 158 182 183 159
4 159 183 184 160
4 160 184 185 161
4 161 185 186 162
4 162 186 187 163
4 163 187 188 164
4 164 188 189 165
4 165 189 190 166
4 166 190 191 167
4 167 191 192 168
4 168 192 169 145
4 169 193 194 170
4 170 194 195 171
4 171 195 196 172
4 172 196 197 173
4 173 197 198 174
4 174 198 199 175
4 175 199 200 176
4 176 200 201 177
4 177 201 202 178
4 178 202 203 179
4 179 203 204 180
4 180 204 205 181
4 181 205 206 182
4 182 206 207 183
4 183 207 208 184
4 184 208 209 185
4 185 209 210 186
4 186 210 211 187
4 187 211 212 188
4 188 212 213 189
4 189 213 214 190
4 190 214 215 191
4 191 215 216 192
4 192 216 193 169
4 193 217 218 194
4 194 218 219 195
4 195 219 220 196
4 196 220 221 197
4 197 221 222 198
4 198 222 223 199
4 199 223 224 200
4 200 224 225 201
4 201 225 226 202
4 202 226 227 203
4 203 227 228 204
4 204 228 229 205
4 205 229 230 206
4 206 230 231 207
4 207 231 232 208
4 208 232 233 209
4 209 233 234 210
4 210 234 235 211
4 211 235 236 212
4 212 236 237 213
4 213 237 238 214
4 214 238 239 215
4 215 239 240 216
4 216 240 217 193
CELL_TYPES 240
5
5
5
5
5
5
5
5
5
5
5
5
5
5
5
5
5
5
5
5
5
5
5
5
9
9
9
9
9
9
9
9
9
9
9
9
9
9
9
9
9
9
9
9
9
9
9
9
9
9
9
9
9
9
9
9
9
9
9
9
9
9
9
9
9
9
9
9
9
9
9
9
9
9
9
9
9
9
9
9
9
9
9
9
9
9
9
9
9
9
9
9
9
9
9
9
9
9
9
9
9
9
9
9
9
9
9
9
9
9
9
9
9
9
9
9
9
9
9
9
9
9
9
9
9
9
9
9
9
9
9
9
9
9
9
9
9
9
9
9
9
9
9
9
9
9
9
9
9
9
9
9
9
9
9
9
9
9
9
9
9
9
9
9
9
9
9
9
9
9
9
9
9
9
9
9
9
9
9
9
9
9
9
9
9
9
9
9
9
9
9
9
9
9
9
9
9
9
9
9
9
9
9
9
9
9
9
9
9
9
9
9
9
9
9
9
9
9
9
9
9
9
9
9
9
9
9
9
9
9
9
9
9
9
9
9
9
9
9
9
POINT_DATA 241
SCALARS fixed float
LOOKUP_TABLE default
0
0
0
0
0
0
0
0
0
0
0
0
0
0
0
0
0
0
0
0
0
0
0
0
0
0
0
0
0
0
0
0
0
0
0
0
0
0
0
0
0
0
0
0
0
0
0
0
0
0
0
0
0
0
0
0
0
0
0
0
0
0
0
0
0
0
0
0
0
0
0
0
0
0
0
0
0
0
0
0
0
0
0
0
0
0
0
0
0
0
0
0
0
0
0
0
0
0
0
0
0
0
0
0
0
0
0
0
0
0
0
0
0
0
0
0
0
0
0
0
0
0
0
0
0
0
0
0
0
0
0
0
0
0
0
0
0
0
0
0
0
0
0
0
0
0
0
0
0
0
0
0
0
0
0
0
0
0
0
0
0
0
0
0
0
0
0
0
0
0
0
0
0
0
0
0
0
0
0
0
0
0
0
0
0
0
0
0
0
0
0
0
0
0
0
0
0
0
0
0
0
0
0
0
0
0
0
0
0
0
0
0
0
0
0
0
0
1
1
1
1
1
1
1
1
1
1
1
1
1
1
1
1
1
1
1
1
1
1
1
1
