# vtk DataFile Version 2.0
Mesquite Mesh original_mesh .
ASCII
DATASET UNSTRUCTURED_GRID
POINTS 15 float
2 -1 2
2 1 2
2 0 2
-2 1 2
1 1 2
0 1 2
-1 1 2
-2 -1 2
-2 0 2
-1 -1 2
0 -1 2
1 -1 2
1.5 0.2 2
0.2 -0.2 2
-1.3 0 2
CELLS 8 40
4 0 2 12 11 
4 2 1 4 12 
4 11 12 13 10 
4 12 4 5 13 
4 10 13 14 9 
4 13 5 6 14 
4 9 14 8 7 
4 14 6 3 8 
CELL_TYPES 8
9
9
9
9
9
9
9
9
POINT_DATA 15
SCALARS fixed float
LOOKUP_TABLE default
1
1
1
1
1
1
1
1
1
1
1
1
0
0
0
