# vtk DataFile Version 2.0
Mesquite Mesh original_mesh .
ASCII
DATASET UNSTRUCTURED_GRID
POINTS 121 float
5 -5 5
5 5 5
5 -4 5
5 -3 5
5 -2 5
5 -1 5
5 0 5
5 1 5
5 2 5
5 3 5
5 4 5
-5 5 5
4 5 5
3 5 5
2 5 5
1 5 5
0 5 5
-1 5 5
-2 5 5
-3 5 5
-4 5 5
-5 -5 5
-5 4 5
-5 3 5
-5 2 5
-5 1 5
-5 0 5
-5 -1 5
-5 -2 5
-5 -3 5
-5 -4 5
-4 -5 5
-3 -5 5
-2 -5 5
-1 -5 5
0 -5 5
1 -5 5
2 -5 5
3 -5 5
4 -5 5
4.0111 -4.25942 5
3.02793 -3.63797 5
2.16542 -4.22378 5
0.685745 -4.34842 5
-0.167932 -4.09947 5
-0.972838 -3.79607 5
-1.78376 -3.77316 5
-3.29498 -3.89367 5
-4.11369 -3.69019 5
3.9158 -2.90904 5
3.30717 -2.73669 5
2.15945 -2.76389 5
0.898808 -3.13189 5
0.262894 -3.06762 5
-0.610783 -3.30342 5
-1.61262 -2.79934 5
-2.7567 -2.776 5
-4.37403 -3.14366 5
3.79887 -1.92991 5
3.32837 -2.13023 5
1.95216 -1.65842 5
0.68379 -1.94211 5
-0.00313101 -2.19933 5
-1.08222 -1.67347 5
-2.10952 -2.09118 5
-3.25173 -1.98342 5
-4.31845 -2.07838 5
3.79834 -1.12422 5
2.8389 -1.15577 5
1.67442 -0.893795 5
1.12963 -0.828972 5
-0.231608 -0.706061 5
-0.80488 -1.04797 5
-1.73438 -1.29297 5
-3.31466 -0.685759 5
-4.22651 -1.27927 5
4.25087 -0.23284 5
3.19142 -0.268537 5
1.7914 -0.0579016 5
1.26222 0.286829 5
-0.0844658 -0.0547456 5
-1.03371 -0.208852 5
-1.86831 0.0898218 5
-3.0351 0.225584 5
-4.02025 -0.298082 5
4.37898 1.09711 5
2.9788 1.27964 5
1.90228 0.983536 5
0.705616 1.06902 5
-0.268711 1.21061 5
-1.04276 1.16245 5
-1.63987 1.03993 5
-2.93463 1.11404 5
-4.27275 0.82705 5
4.14644 1.83519 5
2.93673 1.84996 5
2.05216 1.99042 5
0.932194 1.70221 5
-0.353998 2.3638 5
-1.08731 2.10505 5
-1.95815 1.88831 5
-3.01918 1.73523 5
-4.27671 2.04617 5
4.31068 3.27972 5
3.35535 3.08515 5
1.71007 3.1354 5
0.810007 2.68359 5
-0.222084 2.94481 5
-0.750391 2.73314 5
-2.28339 2.98235 5
-2.99615 3.0022 5
-3.97954 2.69671 5
4.08109 4.17628 5
2.87291 4.24621 5
1.82197 4.13036 5
1.24053 4.32276 5
-0.37664 4.26212 5
-0.88564 3.73429 5
-2.28047 3.81945 5
-2.97283 3.65322 5
-4.42015 3.87551 5
CELLS 100 500
4 0 2 40 39 
4 2 3 49 40 
4 3 4 58 49 
4 4 5 67 58 
4 5 6 76 67 
4 6 7 85 76 
4 7 8 94 85 
4 8 9 103 94 
4 9 10 112 103 
4 10 1 12 112 
4 39 40 41 38 
4 40 49 50 41 
4 49 58 59 50 
4 58 67 68 59 
4 67 76 77 68 
4 76 85 86 77 
4 85 94 95 86 
4 94 103 104 95 
4 103 112 113 104 
4 112 12 13 113 
4 38 41 42 37 
4 41 50 51 42 
4 50 59 60 51 
4 59 68 69 60 
4 68 77 78 69 
4 77 86 87 78 
4 86 95 96 87 
4 95 104 105 96 
4 104 113 114 105 
4 113 13 14 114 
4 37 42 43 36 
4 42 51 52 43 
4 51 60 61 52 
4 60 69 70 61 
4 69 78 79 70 
4 78 87 88 79 
4 87 96 97 88 
4 96 105 106 97 
4 105 114 115 106 
4 114 14 15 115 
4 36 43 44 35 
4 43 52 53 44 
4 52 61 62 53 
4 61 70 71 62 
4 70 79 80 71 
4 79 88 89 80 
4 88 97 98 89 
4 97 106 107 98 
4 106 115 116 107 
4 115 15 16 116 
4 35 44 45 34 
4 44 53 54 45 
4 53 62 63 54 
4 62 71 72 63 
4 71 80 81 72 
4 80 89 90 81 
4 89 98 99 90 
4 98 107 108 99 
4 107 116 117 108 
4 116 16 17 117 
4 34 45 46 33 
4 45 54 55 46 
4 54 63 64 55 
4 63 72 73 64 
4 72 81 82 73 
4 81 90 91 82 
4 90 99 100 91 
4 99 108 109 100 
4 108 117 118 109 
4 117 17 18 118 
4 33 46 47 32 
4 46 55 56 47 
4 55 64 65 56 
4 64 73 74 65 
4 73 82 83 74 
4 82 91 92 83 
4 91 100 101 92 
4 100 109 110 101 
4 109 118 119 110 
4 118 18 19 119 
4 32 47 48 31 
4 47 56 57 48 
4 56 65 66 57 
4 65 74 75 66 
4 74 83 84 75 
4 83 92 93 84 
4 92 101 102 93 
4 101 110 111 102 
4 110 119 120 111 
4 119 19 20 120 
4 31 48 30 21 
4 48 57 29 30 
4 57 66 28 29 
4 66 75 27 28 
4 75 84 26 27 
4 84 93 25 26 
4 93 102 24 25 
4 102 111 23 24 
4 111 120 22 23 
4 120 20 11 22 
CELL_TYPES 100
9
9
9
9
9
9
9
9
9
9
9
9
9
9
9
9
9
9
9
9
9
9
9
9
9
9
9
9
9
9
9
9
9
9
9
9
9
9
9
9
9
9
9
9
9
9
9
9
9
9
9
9
9
9
9
9
9
9
9
9
9
9
9
9
9
9
9
9
9
9
9
9
9
9
9
9
9
9
9
9
9
9
9
9
9
9
9
9
9
9
9
9
9
9
9
9
9
9
9
9
POINT_DATA 121
SCALARS fixed float
LOOKUP_TABLE default
1
1
1
1
1
1
1
1
1
1
1
1
1
1
1
1
1
1
1
1
1
1
1
1
1
1
1
1
1
1
1
1
1
1
1
1
1
1
1
1
0
0
0
0
0
0
0
0
0
0
0
0
0
0
0
0
0
0
0
0
0
0
0
0
0
0
0
0
0
0
0
0
0
0
0
0
0
0
0
0
0
0
0
0
0
0
0
0
0
0
0
0
0
0
0
0
0
0
0
0
0
0
0
0
0
0
0
0
0
0
0
0
0
0
0
0
0
0
0
0
0
