# vtk DataFile Version 3.0
MOAB 3.99 (Alpha)
ASCII
DATASET UNSTRUCTURED_GRID
POINTS 70 double
-0.1145206346 0 9.427396827
0.7886751346 0 6.056624327
-0.02603296549 -0.1786822626 9.09715635
0.07679766479 -0.2455952304 8.713387213
0.1806860666 -0.2819356791 8.325670419
0.2849169997 -0.298520785 7.936675281
0.3892375002 -0.298520785 7.547345873
0.4934684333 -0.2819356791 7.158350735
0.5973568352 -0.2455952304 6.770633941
0.7001874655 -0.1786822626 6.386864804
-1.4 -1.714505519e-16 3
-0.3287671955 0 8.356164022
-0.5430137564 0 7.284931218
-0.7572603173 0 6.213698413
-0.9715068782 0 5.142465609
-1.185753439 0 4.071232804
1.4 0 3
-1.315569669 -0.4788282007 3
-1.07246222 -0.8999026536 3
-0.7 -1.212435565 3
-0.2431074487 -1.378730854 3
0.2431074487 -1.378730854 3
0.7 -1.212435565 3
1.07246222 -0.8999026536 3
1.315569669 -0.4788282007 3
1.298112522 0 3.509437388
1.196225045 0 4.018874776
1.094337567 0 4.528312164
0.9924500897 0 5.037749551
0.8905626122 0 5.547186939
0.8035162005 -0.2289245466 5.822546432
0.6830995131 -0.3580844409 6.143675935
0.5439098933 -0.4502809136 6.469451625
0.3883869131 -0.5093826447 6.797207964
0.2187694262 -0.5316734644 7.125383788
0.03941298143 -0.5080133685 7.452300225
-0.1369517799 -0.4232793594 7.775583188
-0.2769369541 -0.2628586592 8.090885341
0.9063866144 -0.2790608814 5.258134148
0.7644171916 -0.469030875 5.515795487
0.581505942 -0.6123127968 5.777808266
0.3636109314 -0.7032349195 6.041615666
0.1205555591 -0.7290204873 6.305394088
-0.1285674145 -0.6744134521 6.567205641
-0.3500058567 -0.5298816859 6.824788586
-0.4991182434 -0.3051683098 7.074907189
1.008950295 -0.3291048134 4.693657862
0.8432007836 -0.5784367535 4.887327902
0.6134957524 -0.7681731543 5.084547241
0.3327998713 -0.88272885 5.283099596
0.02252086781 -0.9034577396 5.481308052
-0.2837762332 -0.8165909204 5.677530562
-0.5418580957 -0.6234000182 5.870115684
-0.7081476774 -0.3470584325 6.056896246
1.111299343 -0.3790719089 4.129136048
0.9204642721 -0.6865517894 4.258467461
0.6430967408 -0.9193386098 4.390283213
0.3016702607 -1.053054441 4.52293737
-0.07026054464 -1.06665294 4.655177649
-0.4283042078 -0.9508107098 4.785871357
-0.7232336936 -0.7152862208 4.91398645
-0.9124281024 -0.39019951 5.03819413
1.213492687 -0.4289759353 3.564580714
0.9967743554 -0.7936352352 3.629332841
0.6717213995 -1.067111678 3.695364855
0.2717025803 -1.21769895 3.76178506
-0.1584046591 -1.224209387 3.827924461
-0.5662102743 -1.082182138 3.893216366
-0.8993211323 -0.80737215 3.957177217
-1.114565245 -0.4342263674 4.019180193
CELLS 54 270
4 69 15 10 17
4 68 69 17 18
4 67 68 18 19
4 66 67 19 20
4 65 66 20 21
4 64 65 21 22
4 63 64 22 23
4 62 63 23 24
4 25 62 24 16
4 61 14 15 69
4 60 61 69 68
4 59 60 68 67
4 58 59 67 66
4 57 58 66 65
4 56 57 65 64
4 55 56 64 63
4 54 55 63 62
4 26 54 62 25
4 53 13 14 61
4 52 53 61 60
4 51 52 60 59
4 50 51 59 58
4 49 50 58 57
4 48 49 57 56
4 47 48 56 55
4 46 47 55 54
4 27 46 54 26
4 45 12 13 53
4 44 45 53 52
4 43 44 52 51
4 42 43 51 50
4 41 42 50 49
4 40 41 49 48
4 39 40 48 47
4 38 39 47 46
4 28 38 46 27
4 37 11 12 45
4 36 37 45 44
4 35 36 44 43
4 34 35 43 42
4 33 34 42 41
4 32 33 41 40
4 31 32 40 39
4 30 31 39 38
4 29 30 38 28
4 2 0 11 37
4 3 2 37 36
4 4 3 36 35
4 5 4 35 34
4 6 5 34 33
4 7 6 33 32
4 8 7 32 31
4 9 8 31 30
4 1 9 30 29
CELL_TYPES 54
9
9
9
9
9
9
9
9
9
9
9
9
9
9
9
9
9
9
9
9
9
9
9
9
9
9
9
9
9
9
9
9
9
9
9
9
9
9
9
9
9
9
9
9
9
9
9
9
9
9
9
9
9
9
POINT_DATA 70
SCALARS GLOBAL_ID int 1
LOOKUP_TABLE default
71 
72 
73 
74 
75 
76 
77 
78 
79 
80 
81 
82 
83 
84 
85 
86 
87 
88 
89 
90 
91 
92 
93 
94 
95 
96 
97 
98 
99 
100 
101 
102 
103 
104 
105 
106 
107 
108 
109 
110 
111 
112 
113 
114 
115 
116 
117 
118 
119 
120 
121 
122 
123 
124 
125 
126 
127 
128 
129 
130 
131 
132 
133 
134 
135 
136 
137 
138 
139 
140 
CELL_DATA 54
SCALARS GLOBAL_ID int 1
LOOKUP_TABLE default
108 
107 
106 
105 
104 
103 
102 
101 
100 
99 
98 
97 
96 
95 
94 
93 
92 
91 
90 
89 
88 
87 
86 
85 
84 
83 
82 
81 
80 
79 
78 
77 
76 
75 
74 
73 
72 
71 
70 
69 
68 
67 
66 
65 
64 
63 
62 
61 
60 
59 
58 
57 
56 
55 
