# vtk DataFile Version 3.0
Mesquite Mesh
ASCII
DATASET UNSTRUCTURED_GRID
POINTS 70 double
-0.5199010079 0 7.400494961
1.071008083 0 4.644959585
-0.4221709946 -0.3583531803 7.231221612
-0.2404610636 -0.5678905189 6.916490779
-0.03847701444 -0.6855923109 6.566644144
0.1702875989 -0.7396397597 6.205053227
0.3808194762 -0.7396397597 5.840401319
0.5895840896 -0.6855923109 5.478810402
0.7915681387 -0.5678905189 5.128963766
0.9732780697 -0.3583531803 4.814232933
-1.4 -1.714505519e-16 3
-0.6665841732 0 6.667079134
-0.8132673386 0 5.933663307
-0.9599505039 0 5.20024748
-1.106633669 0 4.466831654
-1.253316835 0 3.733415827
1.4 0 3
-1.315569669 -0.4788282007 3
-1.07246222 -0.8999026536 3
-0.7 -1.212435565 3
-0.2431074487 -1.378730854 3
0.2431074487 -1.378730854 3
0.7 -1.212435565 3
1.07246222 -0.8999026536 3
1.315569669 -0.4788282007 3
1.345168014 0 3.274159931
1.290336028 0 3.548319862
1.235504042 0 3.822479792
1.180672055 0 4.096639723
1.125840069 0 4.370799654
1.074310306 -0.2624484731 4.470484118
0.9524760271 -0.4800492944 4.666947621
0.7640887442 -0.6708536682 4.91601472
0.5252960614 -0.8038135305 5.198822686
0.2527100669 -0.863445524 5.501665445
-0.03802613869 -0.8360987604 5.815184818
-0.3238677179 -0.7029825181 6.130004136
-0.5575388789 -0.4462595423 6.429295655
1.131146792 -0.2646892287 4.191485875
1.027384964 -0.4812048099 4.32752714
0.8543585221 -0.6932061404 4.498947288
0.6046778022 -0.8693939788 4.704999681
0.2858983967 -0.9709272819 4.939274558
-0.07708527689 -0.9583153336 5.1929468
-0.4322503633 -0.7998396936 5.454166985
-0.7013031059 -0.4949759527 5.708067917
1.179698391 -0.30496492 3.907603313
1.059536165 -0.556220911 4.01669283
0.8647568793 -0.7896637633 4.144717514
0.5853690468 -0.9795244104 4.294465425
0.2276773477 -1.083480716 4.464280902
-0.1758611111 -1.055686911 4.648827267
-0.5613910255 -0.8659113622 4.840149298
-0.8467614769 -0.520820615 5.029438885
1.228036887 -0.3540105752 3.609776837
1.077050278 -0.6577476485 3.689949941
0.834920387 -0.9216117402 3.782162248
0.5030149767 -1.114557828 3.885952202
0.1004038503 -1.195899299 3.999466549
-0.3294375464 -1.129029981 4.11944349
-0.7208873317 -0.8981003822 4.24182572
-1.00087222 -0.5192367615 4.362287664
1.274760294 -0.4092895094 3.305726872
1.084230447 -0.770583336 3.349146033
0.781981178 -1.063585778 3.399414286
0.388164706 -1.250218609 3.454546596
-0.05959729691 -1.296091266 3.512696232
-0.507556073 -1.181149396 3.572078364
-0.8933900533 -0.9079698297 3.631022455
-1.157639587 -0.5036617825 3.687701283
CELLS 54 270
4 69 15 10 17
4 68 69 17 18
4 67 68 18 19
4 66 67 19 20
4 65 66 20 21
4 64 65 21 22
4 63 64 22 23
4 62 63 23 24
4 25 62 24 16
4 61 14 15 69
4 60 61 69 68
4 59 60 68 67
4 58 59 67 66
4 57 58 66 65
4 56 57 65 64
4 55 56 64 63
4 54 55 63 62
4 26 54 62 25
4 53 13 14 61
4 52 53 61 60
4 51 52 60 59
4 50 51 59 58
4 49 50 58 57
4 48 49 57 56
4 47 48 56 55
4 46 47 55 54
4 27 46 54 26
4 45 12 13 53
4 44 45 53 52
4 43 44 52 51
4 42 43 51 50
4 41 42 50 49
4 40 41 49 48
4 39 40 48 47
4 38 39 47 46
4 28 38 46 27
4 37 11 12 45
4 36 37 45 44
4 35 36 44 43
4 34 35 43 42
4 33 34 42 41
4 32 33 41 40
4 31 32 40 39
4 30 31 39 38
4 29 30 38 28
4 2 0 11 37
4 3 2 37 36
4 4 3 36 35
4 5 4 35 34
4 6 5 34 33
4 7 6 33 32
4 8 7 32 31
4 9 8 31 30
4 1 9 30 29
CELL_TYPES 54
9
9
9
9
9
9
9
9
9
9
9
9
9
9
9
9
9
9
9
9
9
9
9
9
9
9
9
9
9
9
9
9
9
9
9
9
9
9
9
9
9
9
9
9
9
9
9
9
9
9
9
9
9
9
POINT_DATA 70
SCALARS fixed int
LOOKUP_TABLE default
1
1
1
1
1
1
1
1
1
1
1
1
1
1
1
1
1
1
1
1
1
1
1
1
1
1
1
1
1
1
0
0
0
0
0
0
0
0
0
0
0
0
0
0
0
0
0
0
0
0
0
0
0
0
0
0
0
0
0
0
0
0
0
0
0
0
0
0
0
0
SCALARS GLOBAL_ID int 1
LOOKUP_TABLE default
1
2
3
4
5
6
7
8
9
10
11
12
13
14
15
16
17
18
19
20
21
22
23
24
25
26
27
28
29
30
31
32
33
34
35
36
37
38
39
40
41
42
43
44
45
46
47
48
49
50
51
52
53
54
55
56
57
58
59
60
61
62
63
64
65
66
67
68
69
70

CELL_DATA 54
FIELD Average 1
Shape 1 54 double
0.1711452124
0.1651952693
0.1718971604
0.1824654515
0.1937099083
0.2026144773
0.2060503207
0.201624601
0.1942736306
0.3511127519
0.3040843057
0.292260995
0.2828661552
0.2695405917
0.248545761
0.2187349131
0.1837678204
0.164601315
0.6095958305
0.4918030798
0.4615787773
0.4293404173
0.3871225989
0.33169601
0.263018447
0.1907758701
0.1564464898
0.8672668555
0.6544195605
0.613912543
0.5716687725
0.5220521639
0.4589275375
0.3679506565
0.24685453
0.1708834887
0.9586975015
0.6460686404
0.5706294162
0.5228969599
0.5007688668
0.5012144131
0.5052740785
0.4270695622
0.2590800403
0.8729567939
0.4593083551
0.30487865
0.2452202777
0.2376382596
0.2780758811
0.4002848246
0.7911469645
0.8479992507
SCALARS GLOBAL_ID int 1
LOOKUP_TABLE default
54
53
52
51
50
49
48
47
46
45
44
43
42
41
40
39
38
37
36
35
34
33
32
31
30
29
28
27
26
25
24
23
22
21
20
19
18
17
16
15
14
13
12
11
10
9
8
7
6
5
4
3
2
1
SCALARS InverseMeanRatio double 1
LOOKUP_TABLE default
1.072857365
1.065064455
1.055038601
1.050542166
1.050098628
1.051377391
1.05447854
1.066253587
1.101695261
1.055638375
1.053361572
1.036259588
1.026256366
1.021505682
1.018213073
1.015537602
1.020155261
1.050098449
1.059749445
1.067411219
1.04131941
1.024022034
1.015036403
1.011363359
1.012014318
1.020655537
1.034953557
1.095279544
1.141366735
1.115605806
1.097084035
1.083612423
1.071103292
1.06137736
1.06479597
1.043137881
1.159419371
1.312695894
1.355035363
1.417419615
1.474728665
1.487729297
1.422685115
1.296201316
1.074484163
1.285548704
1.692108747
1.959187571
2.233623578
2.540776592
2.905766999
3.158176793
2.425471387
1.240180003
SCALARS Inverted int 1
LOOKUP_TABLE default
0
0
0
0
0
0
0
0
0
0
0
0
0
0
0
0
0
0
0
0
0
0
0
0
0
0
0
0
0
0
0
0
0
0
0
0
0
0
0
0
0
0
0
0
0
0
0
0
0
0
0
0
0
0
