# vtk DataFile Version 3.0
Mesquite Mesh
ASCII
DATASET UNSTRUCTURED_GRID
POINTS 104 double
1 5 0
2 5 0
3 5 0
4 5 0
5 5 0
6 5 0
7 5 0
8 5 0
9 5 0
10 5 0
11 5 0
1 7 0
2 7 0
3 7 0
4 7 0
5 7 0
6 7 0
7 7 0
8 7 0
9 7 0
10 7 0
11 7 0
1 8 0
2 8 0
3 8 0
4 8 0
5 8 0
6 8 0
7 8 0
8 8 0
9 8 0
10 8 0
11 8 0
1 9 0
2 9 0
3 9 0
4 9 0
5 9 0
6 9 0
7 9 0
8 9 0
9 9 0
10 9 0
11 9 0
1 10 0
2 10 0
3 10 0
4 10 0
5 10 0
6 10 0
7 10 0
8 10 0
9 10 0
10 10 0
11 10 0
1 11 0
2 11 0
3 11 0
4 11 0
5 11 0
6 11 0
7 11 0
8 11 0
9 11 0
10 11 0
11 11 0
1 6 0
2 6 0
3 6 0
4 6 0
5 6 0
6 6 0
7 6 0
8 6 0
9 6 0
10 6 0
11 6 0
12 5 0
0 5 0
12 7 0
12 8 0
12 9 0
12 10 0
12 11 0
1 12 0
2 12 0
3 12 0
4 12 0
5 12 0
6 12 0
7 12 0
8 12 0
9 12 0
10 12 0
11 12 0
0 7 0
0 8 0
0 9 0
0 10 0
0 11 0
12 6 0
0 6 0
12 12 0
0 12 0
CELLS 84 420
4 78 0 66 101
4 0 1 67 66
4 1 2 68 67
4 2 3 69 68
4 3 4 70 69
4 4 5 71 70
4 5 6 72 71
4 6 7 73 72
4 7 8 74 73
4 8 9 75 74
4 9 10 76 75
4 10 77 100 76
4 101 66 11 95
4 66 67 12 11
4 67 68 13 12
4 68 69 14 13
4 69 70 15 14
4 70 71 16 15
4 71 72 17 16
4 72 73 18 17
4 73 74 19 18
4 74 75 20 19
4 75 76 21 20
4 76 100 79 21
4 95 11 22 96
4 11 12 23 22
4 12 13 24 23
4 13 14 25 24
4 14 15 26 25
4 15 16 27 26
4 16 17 28 27
4 17 18 29 28
4 18 19 30 29
4 19 20 31 30
4 20 21 32 31
4 21 79 80 32
4 96 22 33 97
4 22 23 34 33
4 23 24 35 34
4 24 25 36 35
4 25 26 37 36
4 26 27 38 37
4 27 28 39 38
4 28 29 40 39
4 29 30 41 40
4 30 31 42 41
4 31 32 43 42
4 32 80 81 43
4 97 33 44 98
4 33 34 45 44
4 34 35 46 45
4 35 36 47 46
4 36 37 48 47
4 37 38 49 48
4 38 39 50 49
4 39 40 51 50
4 40 41 52 51
4 41 42 53 52
4 42 43 54 53
4 43 81 82 54
4 98 44 55 99
4 44 45 56 55
4 45 46 57 56
4 46 47 58 57
4 47 48 59 58
4 48 49 60 59
4 49 50 61 60
4 50 51 62 61
4 51 52 63 62
4 52 53 64 63
4 53 54 65 64
4 54 82 83 65
4 99 55 84 103
4 55 56 85 84
4 56 57 86 85
4 57 58 87 86
4 58 59 88 87
4 59 60 89 88
4 60 61 90 89
4 61 62 91 90
4 62 63 92 91
4 63 64 93 92
4 64 65 94 93
4 65 83 102 94
CELL_TYPES 84
9
9
9
9
9
9
9
9
9
9
9
9
9
9
9
9
9
9
9
9
9
9
9
9
9
9
9
9
9
9
9
9
9
9
9
9
9
9
9
9
9
9
9
9
9
9
9
9
9
9
9
9
9
9
9
9
9
9
9
9
9
9
9
9
9
9
9
9
9
9
9
9
9
9
9
9
9
9
9
9
9
9
9
9
POINT_DATA 104
SCALARS fixed int
LOOKUP_TABLE default
0
0
0
0
0
0
0
0
0
0
0
0
0
0
0
0
0
0
0
0
0
0
0
0
0
0
0
0
0
0
0
0
0
0
0
0
0
0
0
0
0
0
0
0
0
0
0
0
0
0
0
0
0
0
0
0
0
0
0
0
0
0
0
0
0
0
0
0
0
0
0
0
0
0
0
0
0
1
1
1
1
1
1
1
1
1
1
1
1
1
1
1
1
1
1
1
1
1
1
1
1
1
1
1
SCALARS GLOBAL_ID unsigned_long 1
LOOKUP_TABLE default
67
68
69
70
71
72
73
74
75
76
77
93
94
95
96
97
98
99
100
101
102
103
106
107
108
109
110
111
112
113
114
115
116
119
120
121
122
123
124
125
126
127
128
129
132
133
134
135
136
137
138
139
140
141
142
145
146
147
148
149
150
151
152
153
154
155
80
81
82
83
84
85
86
87
88
89
90
78
66
104
117
130
143
156
158
159
160
161
162
163
164
165
166
167
168
92
105
118
131
144
91
79
169
157
SCALARS PROCESSOR_ID int 1
LOOKUP_TABLE default
0
0
0
0
0
0
0
0
0
0
0
1
1
1
1
1
1
1
1
1
1
1
1
1
1
1
1
1
1
1
1
1
1
1
1
1
1
1
1
1
1
1
1
1
1
1
1
1
1
1
1
1
1
1
1
1
1
1
1
1
1
1
1
1
1
1
1
1
1
1
1
1
1
1
1
1
1
0
0
1
1
1
1
1
1
1
1
1
1
1
1
1
1
1
1
1
1
1
1
1
1
1
1
1
