# vtk DataFile Version 2.0
Mesquite Mesh original_mesh .
ASCII
DATASET UNSTRUCTURED_GRID
POINTS 9 float
-3 0 0
-2 0 0
-1 0 0
 1 0 0 
 2 0 0
 3 0 0
 0 1 0
 0 0 0 
 0 8 0
CELLS 4 20
4 0 1 7 8
4 1 2 6 7
4 3 4 7 6
4 4 5 8 7
CELL_TYPES 4
9
9
9
9
POINT_DATA 9
SCALARS fixed float
LOOKUP_TABLE default
1
1
1
1
1
1
1
0
1
