# vtk DataFile Version 2.0
Mesquite Mesh original_mesh
ASCII
DATASET UNSTRUCTURED_GRID
POINTS 146 float
0.000000 0.000000 0.0
0.100000 0.000000 0.0
0.200000 0.000000 0.0
0.300000 0.000000 0.0
0.400000 0.000000 0.0
0.500000 0.000000 0.0
0.600000 0.000000 0.0
0.700000 0.000000 0.0
0.800000 0.000000 0.0
0.900000 0.000000 0.0
1.000000 0.000000 0.0
0.000000 0.100000 0.0
0.100000 0.100000 0.0
0.200000 0.100000 0.0
0.300000 0.100000 0.0
0.400000 0.100000 0.0
0.500000 0.100000 0.0
0.600000 0.100000 0.0
0.700000 0.100000 0.0
0.800000 0.100000 0.0
0.900000 0.100000 0.0
1.000000 0.100000 0.0
0.000000 0.200000 0.0
0.100000 0.200000 0.0
0.200000 0.200000 0.0
0.300000 0.200000 0.0
0.400000 0.200000 0.0
0.500000 0.200000 0.0
0.600000 0.200000 0.0
0.700000 0.200000 0.0
0.800000 0.200000 0.0
0.900000 0.200000 0.0
1.000000 0.200000 0.0
0.000000 0.300000 0.0
0.100000 0.300000 0.0
0.200000 0.300000 0.0
0.300000 0.300000 0.0
0.400000 0.300000 0.0
0.500000 0.300000 0.0
0.600000 0.300000 0.0
0.700000 0.300000 0.0
0.800000 0.300000 0.0
0.900000 0.300000 0.0
1.000000 0.300000 0.0
0.000000 0.400000 0.0
0.100000 0.400000 0.0
0.200000 0.400000 0.0
0.300000 0.400000 0.0
0.400000 0.400000 0.0
0.500000 0.400000 0.0
0.600000 0.400000 0.0
0.700000 0.400000 0.0
0.800000 0.400000 0.0
0.900000 0.400000 0.0
1.000000 0.400000 0.0
0.000000 0.500000 0.0
0.100000 0.500000 0.0
0.200000 0.500000 0.0
0.300000 0.500000 0.0
0.400000 0.500000 0.0
0.500000 0.500000 0.0
0.600000 0.500000 0.0
0.700000 0.500000 0.0
0.800000 0.500000 0.0
0.900000 0.500000 0.0
1.000000 0.500000 0.0
0.000000 0.600000 0.0
0.100000 0.600000 0.0
0.200000 0.600000 0.0
0.300000 0.600000 0.0
0.400000 0.600000 0.0
0.500000 0.600000 0.0
0.600000 0.600000 0.0
0.700000 0.600000 0.0
0.800000 0.600000 0.0
0.900000 0.600000 0.0
1.000000 0.600000 0.0
0.000000 0.700000 0.0
0.100000 0.700000 0.0
0.200000 0.700000 0.0
0.300000 0.700000 0.0
0.400000 0.700000 0.0
0.500000 0.700000 0.0
0.600000 0.700000 0.0
0.700000 0.700000 0.0
0.800000 0.700000 0.0
0.900000 0.700000 0.0
1.000000 0.700000 0.0
0.000000 0.800000 0.0
0.100000 0.800000 0.0
0.200000 0.800000 0.0
0.300000 0.800000 0.0
0.400000 0.800000 0.0
0.500000 0.800000 0.0
0.600000 0.800000 0.0
0.700000 0.800000 0.0
0.800000 0.800000 0.0
0.900000 0.800000 0.0
1.000000 0.800000 0.0
0.000000 0.900000 0.0
0.100000 0.900000 0.0
0.200000 0.900000 0.0
0.300000 0.900000 0.0
0.400000 0.900000 0.0
0.500000 0.900000 0.0
0.600000 0.900000 0.0
0.700000 0.900000 0.0
0.800000 0.900000 0.0
0.900000 0.900000 0.0
1.000000 0.900000 0.0
0.000000 1.000000 0.0
0.100000 1.000000 0.0
0.200000 1.000000 0.0
0.300000 1.000000 0.0
0.400000 1.000000 0.0
0.500000 1.000000 0.0
0.600000 1.000000 0.0
0.700000 1.000000 0.0
0.800000 1.000000 0.0
0.900000 1.000000 0.0
1.000000 1.000000 0.0
0.050000 0.050000 0.0
0.150000 0.050000 0.0
0.250000 0.050000 0.0
0.350000 0.050000 0.0
0.450000 0.050000 0.0
0.050000 0.150000 0.0
0.150000 0.150000 0.0
0.250000 0.150000 0.0
0.350000 0.150000 0.0
0.450000 0.150000 0.0
0.050000 0.250000 0.0
0.150000 0.250000 0.0
0.250000 0.250000 0.0
0.350000 0.250000 0.0
0.450000 0.250000 0.0
0.050000 0.350000 0.0
0.150000 0.350000 0.0
0.250000 0.350000 0.0
0.350000 0.350000 0.0
0.450000 0.350000 0.0
0.050000 0.450000 0.0
0.150000 0.450000 0.0
0.250000 0.450000 0.0
0.350000 0.450000 0.0
0.450000 0.450000 0.0
CELLS 225 925
3 0 1 121
3 1 12 121
3 12 11 121
3 11 0 121
3 1 2 122
3 2 13 122
3 13 12 122
3 12 1 122
3 2 3 123
3 3 14 123
3 14 13 123
3 13 2 123
3 3 4 124
3 4 15 124
3 15 14 124
3 14 3 124
3 4 5 125
3 5 16 125
3 16 15 125
3 15 4 125
3 5 6 17
3 5 17 16
3 6 7 18
3 6 18 17
3 7 8 19
3 7 19 18
3 8 9 20
3 8 20 19
3 9 10 21
3 9 21 20
3 11 12 126
3 12 23 126
3 23 22 126
3 22 11 126
3 12 13 127
3 13 24 127
3 24 23 127
3 23 12 127
3 13 14 128
3 14 25 128
3 25 24 128
3 24 13 128
3 14 15 129
3 15 26 129
3 26 25 129
3 25 14 129
3 15 16 130
3 16 27 130
3 27 26 130
3 26 15 130
3 16 17 28
3 16 28 27
3 17 18 29
3 17 29 28
3 18 19 30
3 18 30 29
3 19 20 31
3 19 31 30
3 20 21 32
3 20 32 31
3 22 23 131
3 23 34 131
3 34 33 131
3 33 22 131
3 23 24 132
3 24 35 132
3 35 34 132
3 34 23 132
3 24 25 133
3 25 36 133
3 36 35 133
3 35 24 133
3 25 26 134
3 26 37 134
3 37 36 134
3 36 25 134
3 26 27 135
3 27 38 135
3 38 37 135
3 37 26 135
3 27 28 39
3 27 39 38
3 28 29 40
3 28 40 39
3 29 30 41
3 29 41 40
3 30 31 42
3 30 42 41
3 31 32 43
3 31 43 42
3 33 34 136
3 34 45 136
3 45 44 136
3 44 33 136
3 34 35 137
3 35 46 137
3 46 45 137
3 45 34 137
3 35 36 138
3 36 47 138
3 47 46 138
3 46 35 138
3 36 37 139
3 37 48 139
3 48 47 139
3 47 36 139
3 37 38 140
3 38 49 140
3 49 48 140
3 48 37 140
3 38 39 50
3 38 50 49
3 39 40 51
3 39 51 50
3 40 41 52
3 40 52 51
3 41 42 53
3 41 53 52
3 42 43 54
3 42 54 53
3 44 45 141
3 45 56 141
3 56 55 141
3 55 44 141
3 45 46 142
3 46 57 142
3 57 56 142
3 56 45 142
3 46 47 143
3 47 58 143
3 58 57 143
3 57 46 143
3 47 48 144
3 48 59 144
3 59 58 144
3 58 47 144
3 48 49 145
3 49 60 145
3 60 59 145
3 59 48 145
3 49 50 61
3 49 61 60
3 50 51 62
3 50 62 61
3 51 52 63
3 51 63 62
3 52 53 64
3 52 64 63
3 53 54 65
3 53 65 64
3 55 56 66
3 56 67 66
3 56 57 67
3 57 68 67
3 57 58 68
3 58 69 68
3 58 59 69
3 59 70 69
3 59 60 70
3 60 71 70
4 60 61 72 71
4 61 62 73 72
4 62 63 74 73
4 63 64 75 74
4 64 65 76 75
3 66 67 77
3 67 78 77
3 67 68 78
3 68 79 78
3 68 69 79
3 69 80 79
3 69 70 80
3 70 81 80
3 70 71 81
3 71 82 81
4 71 72 83 82
4 72 73 84 83
4 73 74 85 84
4 74 75 86 85
4 75 76 87 86
3 77 78 88
3 78 89 88
3 78 79 89
3 79 90 89
3 79 80 90
3 80 91 90
3 80 81 91
3 81 92 91
3 81 82 92
3 82 93 92
4 82 83 94 93
4 83 84 95 94
4 84 85 96 95
4 85 86 97 96
4 86 87 98 97
3 88 89 99
3 89 100 99
3 89 90 100
3 90 101 100
3 90 91 101
3 91 102 101
3 91 92 102
3 92 103 102
3 92 93 103
3 93 104 103
4 93 94 105 104
4 94 95 106 105
4 95 96 107 106
4 96 97 108 107
4 97 98 109 108
3 99 100 110
3 100 111 110
3 100 101 111
3 101 112 111
3 101 102 112
3 102 113 112
3 102 103 113
3 103 114 113
3 103 104 114
3 104 115 114
4 104 105 116 115
4 105 106 117 116
4 106 107 118 117
4 107 108 119 118
4 108 109 120 119
CELL_TYPES 225
5 5 5 5 5  5 5 5 5 5  5 5 5 5 5  5 5 5 5 5
5 5 5 5 5  5 5 5 5 5
5 5 5 5 5  5 5 5 5 5  5 5 5 5 5  5 5 5 5 5
5 5 5 5 5  5 5 5 5 5
5 5 5 5 5  5 5 5 5 5  5 5 5 5 5  5 5 5 5 5
5 5 5 5 5  5 5 5 5 5
5 5 5 5 5  5 5 5 5 5  5 5 5 5 5  5 5 5 5 5
5 5 5 5 5  5 5 5 5 5
5 5 5 5 5  5 5 5 5 5  5 5 5 5 5  5 5 5 5 5
5 5 5 5 5  5 5 5 5 5
5 5 5 5 5  5 5 5 5 5
9 9 9 9 9
5 5 5 5 5  5 5 5 5 5
9 9 9 9 9
5 5 5 5 5  5 5 5 5 5
9 9 9 9 9
5 5 5 5 5  5 5 5 5 5
9 9 9 9 9
5 5 5 5 5  5 5 5 5 5
9 9 9 9 9
POINT_DATA 146
SCALARS fixed int
LOOKUP_TABLE default
1  1  1  1  1  1  1  1  1  1  1
1  0  0  0  0  0  0  0  0  0  1
1  0  0  0  0  0  0  0  0  0  1
1  0  0  0  0  0  0  0  0  0  1
1  0  0  0  0  0  0  0  0  0  1
1  0  0  0  0  0  0  0  0  0  1
1  0  0  0  0  0  0  0  0  0  1
1  0  0  0  0  0  0  0  0  0  1
1  0  0  0  0  0  0  0  0  0  1
1  0  0  0  0  0  0  0  0  0  1
1  1  1  1  1  1  1  1  1  1  1
  0  0  0  0  0
  0  0  0  0  0
  0  0  0  0  0
  0  0  0  0  0
  0  0  0  0  0
CELL_DATA 225
SCALARS group int
LOOKUP_TABLE default
1 1 1 1 1  1 1 1 1 1  1 1 1 1 1  1 1 1 1 1 
2 2 2 2 2  2 2 2 2 2  
1 1 1 1 1  1 1 1 1 1  1 1 1 1 1  1 1 1 1 1 
2 2 2 2 2  2 2 2 2 2  
1 1 1 1 1  1 1 1 1 1  1 1 1 1 1  1 1 1 1 1 
2 2 2 2 2  2 2 2 2 2  
1 1 1 1 1  1 1 1 1 1  1 1 1 1 1  1 1 1 1 1 
2 2 2 2 2  2 2 2 2 2  
1 1 1 1 1  1 1 1 1 1  1 1 1 1 1  1 1 1 1 1 
2 2 2 2 2  2 2 2 2 2  
3 3 3 3 3  3 3 3 3 3
4 4 4 4 4
3 3 3 3 3  3 3 3 3 3
4 4 4 4 4
3 3 3 3 3  3 3 3 3 3
4 4 4 4 4
3 3 3 3 3  3 3 3 3 3
4 4 4 4 4
3 3 3 3 3  3 3 3 3 3
4 4 4 4 4
POINT_DATA 146
SCALARS group int
LOOKUP_TABLE default
0  0  0  0  0  0  0  0  0  0  0
0  1  1  1  1  2  3  3  3  3  0
0  1  1  1  1  2  3  3  3  3  0
0  1  1  1  1  2  3  3  3  3  0
0  1  1  1  1  2  3  3  3  3  0
0  4  4  4  4  5  6  6  6  6  0
0  7  7  7  7  8  9  9  9  9  0
0  7  7  7  7  8  9  9  9  9  0
0  7  7  7  7  8  9  9  9  9  0
0  7  7  7  7  8  9  9  9  9  0
0  0  0  0  0  0  0  0  0  0  0
  1  1  1  1  1
  1  1  1  1  1
  1  1  1  1  1
  1  1  1  1  1
  1  1  1  1  1
