# vtk DataFile Version 3.0
Mesquite Mesh
ASCII
DATASET UNSTRUCTURED_GRID
POINTS 192 double
-3 -5 0
-2.333333333 -5 0
-1.166666667 -2.166666666 0
-1.5 -2.166666666 0
-1.666666667 -5 0
-0.8333333335 -2.166666666 0
-1 -5 0
-0.5 -2.166666666 0
-0.3333333333 -5 0
-0.1666666666 -2.166666666 0
0.3333333333 -5 0
0.1666666666 -2.166666666 0
1 -5 0
0.5 -2.166666666 0
1.666666667 -5 0
0.8333333335 -2.166666666 0
2.333333333 -5 0
1.166666667 -2.166666666 0
3 -5 0
1.5 -2.166666666 0
3.666666667 -5 0
1.833333333 -2.166666666 0
4.333333333 -5 0
2.166666666 -2.166666666 0
5 -5 0
5 -4.333333333 0
-1.166666667 -1.833333333 0
-1.5 -1.833333333 0
-0.8333333335 -1.833333333 0
-0.5 -1.833333333 0
-0.1666666666 -1.833333333 0
0.1666666666 -1.833333333 0
0.5 -1.833333333 0
0.8333333335 -1.833333333 0
1.166666667 -1.833333333 0
1.5 -1.833333333 0
1.833333333 -1.833333333 0
2.166666666 -1.833333333 0
5 -3.666666667 0
-2.333333333 -3 0
-3 -3 0
-1.666666667 -3 0
-1 -3 0
-0.3333333333 -3 0
0.3333333333 -3 0
1 -3 0
1.666666667 -3 0
2.333333333 -3 0
3 -3 0
1.833333333 -1.5 0
2.166666666 -1.5 0
5 -3 0
-5 3 0
-5 2.333333333 0
-2.166666666 1.166666667 0
-2.166666666 1.5 0
-5 1.666666667 0
-2.166666666 0.8333333335 0
-5 1 0
-2.166666666 0.5 0
-5 0.3333333333 0
-2.166666666 0.1666666666 0
-5 -0.3333333333 0
-2.166666666 -0.1666666666 0
-5 -1 0
-2.166666666 -0.5 0
-5 -1.666666667 0
-2.166666666 -0.8333333335 0
-5 -2.333333333 0
-2.166666666 -1.166666667 0
-5 -3 0
-2.166666666 -1.5 0
-5 -3.666666667 0
-2.166666666 -1.833333333 0
-5 -4.333333333 0
-2.166666666 -2.166666666 0
-5 -5 0
-4.333333333 -5 0
-1.833333333 1.166666667 0
-1.833333333 1.5 0
-1.833333333 0.8333333335 0
-1.833333333 0.5 0
-1.833333333 0.1666666666 0
-1.833333333 -0.1666666666 0
-1.833333333 -0.5 0
-1.833333333 -0.8333333335 0
-1.833333333 -1.166666667 0
-1.833333333 -1.5 0
-1.833333333 -1.833333333 0
-1.833333333 -2.166666666 0
-3.666666667 -5 0
-3 2.333333333 0
-3 3 0
-3 1.666666667 0
-3 1 0
-3 0.3333333333 0
-3 -0.3333333333 0
-3 -1 0
-3 -1.666666667 0
-3 -2.333333333 0
1.833333333 -1.166666667 0
3 -2.333333333 0
2.166666666 -1.166666667 0
5 -2.333333333 0
1.833333333 -0.8333333335 0
3 -1.666666667 0
2.166666666 -0.8333333335 0
5 -1.666666667 0
1.833333333 -0.5 0
3 -1 0
2.166666666 -0.5 0
5 -1 0
1.833333333 -0.1666666666 0
3 -0.3333333333 0
2.166666666 -0.1666666666 0
5 -0.3333333333 0
1.833333333 0.1666666666 0
3 0.3333333333 0
2.166666666 0.1666666666 0
5 0.3333333333 0
1.833333333 0.5 0
3 1 0
2.166666666 0.5 0
5 1 0
1.833333333 0.8333333335 0
3 1.666666667 0
2.166666666 0.8333333335 0
5 1.666666667 0
1.833333333 1.166666667 0
3 2.333333333 0
2.166666666 1.166666667 0
5 2.333333333 0
1.833333333 1.5 0
3 3 0
2.166666666 1.5 0
5 3 0
1.833333333 1.833333333 0
1.5 1.833333333 0
2.166666666 1.833333333 0
5 3.666666667 0
1.833333333 2.166666666 0
1.5 2.166666666 0
2.166666666 2.166666666 0
5 4.333333333 0
3.666666667 5 0
3 5 0
4.333333333 5 0
5 5 0
2.333333333 5 0
1.166666667 2.166666666 0
1.666666667 5 0
0.8333333335 2.166666666 0
1 5 0
0.5 2.166666666 0
0.3333333333 5 0
0.1666666666 2.166666666 0
-0.3333333333 5 0
-0.1666666666 2.166666666 0
-1 5 0
-0.5 2.166666666 0
-1.666666667 5 0
-0.8333333335 2.166666666 0
-2.333333333 5 0
-1.166666667 2.166666666 0
-3 5 0
-1.5 2.166666666 0
-3.666666667 5 0
-1.833333333 2.166666666 0
-4.333333333 5 0
-2.166666666 2.166666666 0
-5 5 0
-5 4.333333333 0
1.166666667 1.833333333 0
0.8333333335 1.833333333 0
0.5 1.833333333 0
0.1666666666 1.833333333 0
-0.1666666666 1.833333333 0
-0.5 1.833333333 0
-0.8333333335 1.833333333 0
-1.166666667 1.833333333 0
-1.5 1.833333333 0
-1.833333333 1.833333333 0
-2.166666666 1.833333333 0
-5 3.666666667 0
2.333333333 3 0
1.666666667 3 0
1 3 0
0.3333333333 3 0
-0.3333333333 3 0
-1 3 0
-1.666666667 3 0
-2.333333333 3 0
CELLS 144 720
4 0 1 2 3
4 1 4 5 2
4 4 6 7 5
4 6 8 9 7
4 8 10 11 9
4 10 12 13 11
4 12 14 15 13
4 14 16 17 15
4 16 18 19 17
4 18 20 21 19
4 20 22 23 21
4 22 24 25 23
4 3 2 26 27
4 2 5 28 26
4 5 7 29 28
4 7 9 30 29
4 9 11 31 30
4 11 13 32 31
4 13 15 33 32
4 15 17 34 33
4 17 19 35 34
4 19 21 36 35
4 21 23 37 36
4 23 25 38 37
4 27 26 39 40
4 26 28 41 39
4 28 29 42 41
4 29 30 43 42
4 30 31 44 43
4 31 32 45 44
4 32 33 46 45
4 33 34 47 46
4 34 35 48 47
4 35 36 49 48
4 36 37 50 49
4 37 38 51 50
4 52 53 54 55
4 53 56 57 54
4 56 58 59 57
4 58 60 61 59
4 60 62 63 61
4 62 64 65 63
4 64 66 67 65
4 66 68 69 67
4 68 70 71 69
4 70 72 73 71
4 72 74 75 73
4 74 76 77 75
4 55 54 78 79
4 54 57 80 78
4 57 59 81 80
4 59 61 82 81
4 61 63 83 82
4 63 65 84 83
4 65 67 85 84
4 67 69 86 85
4 69 71 87 86
4 71 73 88 87
4 73 75 89 88
4 75 77 90 89
4 79 78 91 92
4 78 80 93 91
4 80 81 94 93
4 81 82 95 94
4 82 83 96 95
4 83 84 97 96
4 84 85 98 97
4 85 86 99 98
4 86 87 40 99
4 87 88 27 40
4 88 89 3 27
4 89 90 0 3
4 48 49 100 101
4 49 50 102 100
4 50 51 103 102
4 101 100 104 105
4 100 102 106 104
4 102 103 107 106
4 105 104 108 109
4 104 106 110 108
4 106 107 111 110
4 109 108 112 113
4 108 110 114 112
4 110 111 115 114
4 113 112 116 117
4 112 114 118 116
4 114 115 119 118
4 117 116 120 121
4 116 118 122 120
4 118 119 123 122
4 121 120 124 125
4 120 122 126 124
4 122 123 127 126
4 125 124 128 129
4 124 126 130 128
4 126 127 131 130
4 129 128 132 133
4 128 130 134 132
4 130 131 135 134
4 133 132 136 137
4 132 134 138 136
4 134 135 139 138
4 137 136 140 141
4 136 138 142 140
4 138 139 143 142
4 141 140 144 145
4 140 142 146 144
4 142 143 147 146
4 145 148 149 141
4 148 150 151 149
4 150 152 153 151
4 152 154 155 153
4 154 156 157 155
4 156 158 159 157
4 158 160 161 159
4 160 162 163 161
4 162 164 165 163
4 164 166 167 165
4 166 168 169 167
4 168 170 171 169
4 141 149 172 137
4 149 151 173 172
4 151 153 174 173
4 153 155 175 174
4 155 157 176 175
4 157 159 177 176
4 159 161 178 177
4 161 163 179 178
4 163 165 180 179
4 165 167 181 180
4 167 169 182 181
4 169 171 183 182
4 137 172 184 133
4 172 173 185 184
4 173 174 186 185
4 174 175 187 186
4 175 176 188 187
4 176 177 189 188
4 177 178 190 189
4 178 179 191 190
4 179 180 92 191
4 180 181 79 92
4 181 182 55 79
4 182 183 52 55
CELL_TYPES 144
9
9
9
9
9
9
9
9
9
9
9
9
9
9
9
9
9
9
9
9
9
9
9
9
9
9
9
9
9
9
9
9
9
9
9
9
9
9
9
9
9
9
9
9
9
9
9
9
9
9
9
9
9
9
9
9
9
9
9
9
9
9
9
9
9
9
9
9
9
9
9
9
9
9
9
9
9
9
9
9
9
9
9
9
9
9
9
9
9
9
9
9
9
9
9
9
9
9
9
9
9
9
9
9
9
9
9
9
9
9
9
9
9
9
9
9
9
9
9
9
9
9
9
9
9
9
9
9
9
9
9
9
9
9
9
9
9
9
9
9
9
9
9
9
POINT_DATA 192
SCALARS fixed int
LOOKUP_TABLE default
1
1
0
0
1
0
1
0
1
0
1
0
1
0
1
0
1
0
1
0
1
0
1
0
1
1
0
0
0
0
0
0
0
0
0
0
0
0
1
1
1
1
1
1
1
1
1
1
1
0
0
1
1
1
0
0
1
0
1
0
1
0
1
0
1
0
1
0
1
0
1
0
1
0
1
0
1
1
0
0
0
0
0
0
0
0
0
0
0
0
1
1
1
1
1
1
1
1
1
1
0
1
0
1
0
1
0
1
0
1
0
1
0
1
0
1
0
1
0
1
0
1
0
1
0
1
0
1
0
1
0
1
0
1
0
1
0
0
0
1
0
0
0
1
1
1
1
1
1
0
1
0
1
0
1
0
1
0
1
0
1
0
1
0
1
0
1
0
1
0
1
1
0
0
0
0
0
0
0
0
0
0
0
1
1
1
1
1
1
1
1
1

CELL_DATA 144
SCALARS GLOBAL_ID int 1
LOOKUP_TABLE default
1
2
3
4
5
6
7
8
9
10
11
12
13
14
15
16
17
18
19
20
21
22
23
24
25
26
27
28
29
30
31
32
33
34
35
36
37
38
39
40
41
42
43
44
45
46
47
48
49
50
51
52
53
54
55
56
57
58
59
60
61
62
63
64
65
66
67
68
69
70
71
72
73
74
75
76
77
78
79
80
81
82
83
84
85
86
87
88
89
90
91
92
93
94
95
96
97
98
99
100
101
102
103
104
105
106
107
108
109
110
111
112
113
114
115
116
117
118
119
120
121
122
123
124
125
126
127
128
129
130
131
132
133
134
135
136
137
138
139
140
141
142
143
144
