# vtk DataFile Version 3.0
Mesquite Mesh
ASCII
DATASET UNSTRUCTURED_GRID
POINTS 96 double
-3 -5 0
-2 -5 0
-1 -2 0
-1.5 -2 0
-1 -5 0
-0.5 -2 0
0 -5 0
1.874699728e-33 -2 0
1 -5 0
0.5 -2 0
2 -5 0
1 -2 0
3 -5 0
1.5 -2 0
4 -5 0
2 -2 0
5 -5 0
5 -4 0
-2 -3 0
-3 -3 0
-1 -3 0
0 -3 0
1 -3 0
2 -3 0
3 -3 0
2 -1.5 0
5 -3 0
-5 3 0
-5 2 0
-2 1 0
-2 1.5 0
-5 1 0
-2 0.5 0
-5 0 0
-2 -1.874699728e-33 0
-5 -1 0
-2 -0.5 0
-5 -2 0
-2 -1 0
-5 -3 0
-2 -1.5 0
-5 -4 0
-2 -2 0
-5 -5 0
-4 -5 0
-3 2 0
-3 3 0
-3 1 0
-3 0 0
-3 -1 0
-3 -2 0
2 -1 0
3 -2 0
5 -2 0
2 -0.5 0
3 -1 0
5 -1 0
2 3.749399457e-33 0
3 0 0
5 0 0
2 0.5 0
3 1 0
5 1 0
2 1 0
3 2 0
5 2 0
2 1.5 0
3 3 0
5 3 0
2 2 0
1.5 2 0
5 4 0
4 5 0
3 5 0
5 5 0
2 5 0
1 2 0
1 5 0
0.5 2 0
0 5 0
-1.874699728e-33 2 0
-1 5 0
-0.5 2 0
-2 5 0
-1 2 0
-3 5 0
-1.5 2 0
-4 5 0
-2 2 0
-5 5 0
-5 4 0
2 3 0
1 3 0
0 3 0
-1 3 0
-2 3 0
CELLS 64 320
4 0 1 2 3
4 1 4 5 2
4 4 6 7 5
4 6 8 9 7
4 8 10 11 9
4 10 12 13 11
4 12 14 15 13
4 14 16 17 15
4 3 2 18 19
4 2 5 20 18
4 5 7 21 20
4 7 9 22 21
4 9 11 23 22
4 11 13 24 23
4 13 15 25 24
4 15 17 26 25
4 27 28 29 30
4 28 31 32 29
4 31 33 34 32
4 33 35 36 34
4 35 37 38 36
4 37 39 40 38
4 39 41 42 40
4 41 43 44 42
4 30 29 45 46
4 29 32 47 45
4 32 34 48 47
4 34 36 49 48
4 36 38 50 49
4 38 40 19 50
4 40 42 3 19
4 42 44 0 3
4 24 25 51 52
4 25 26 53 51
4 52 51 54 55
4 51 53 56 54
4 55 54 57 58
4 54 56 59 57
4 58 57 60 61
4 57 59 62 60
4 61 60 63 64
4 60 62 65 63
4 64 63 66 67
4 63 65 68 66
4 67 66 69 70
4 66 68 71 69
4 70 69 72 73
4 69 71 74 72
4 73 75 76 70
4 75 77 78 76
4 77 79 80 78
4 79 81 82 80
4 81 83 84 82
4 83 85 86 84
4 85 87 88 86
4 87 89 90 88
4 70 76 91 67
4 76 78 92 91
4 78 80 93 92
4 80 82 94 93
4 82 84 95 94
4 84 86 46 95
4 86 88 30 46
4 88 90 27 30
CELL_TYPES 64
9
9
9
9
9
9
9
9
9
9
9
9
9
9
9
9
9
9
9
9
9
9
9
9
9
9
9
9
9
9
9
9
9
9
9
9
9
9
9
9
9
9
9
9
9
9
9
9
9
9
9
9
9
9
9
9
9
9
9
9
9
9
9
9
POINT_DATA 96
SCALARS fixed int
LOOKUP_TABLE default
1
1
0
0
1
0
1
0
1
0
1
0
1
0
1
0
1
1
1
1
1
1
1
1
1
0
1
1
1
0
0
1
0
1
0
1
0
1
0
1
0
1
0
1
1
1
1
1
1
1
1
0
1
1
0
1
1
0
1
1
0
1
1
0
1
1
0
1
1
0
0
1
1
1
1
1
0
1
0
1
0
1
0
1
0
1
0
1
0
1
1
1
1
1
1
1

CELL_DATA 64
SCALARS GLOBAL_ID int 1
LOOKUP_TABLE default
1
2
3
4
5
6
7
8
9
10
11
12
13
14
15
16
17
18
19
20
21
22
23
24
25
26
27
28
29
30
31
32
33
34
35
36
37
38
39
40
41
42
43
44
45
46
47
48
49
50
51
52
53
54
55
56
57
58
59
60
61
62
63
64
