# vtk DataFile Version 3.0
Mesquite Mesh
ASCII
DATASET UNSTRUCTURED_GRID
POINTS 231 double
-1 0 0
-1.1 0 0
-1.2 0 0
-1.3 0 0
-1.4 0 0
-1.5 0 0
-1.6 0 0
-1.7 0 0
-1.8 0 0
-1.9 0 0
-2 0 0
-0.987688 0.312869 0
-1.051868002 0.3059453775 0
-1.127842761 0.3065552168 0
-1.210859517 0.3147135097 0
-1.298999281 0.3306211206 0
-1.391654632 0.3546697335 0
-1.489072733 0.3874514975 0
-1.592347758 0.4297736077 0
-1.703799575 0.4826781844 0
-1.82808757 0.5474679228 0
-1.97538 0.625738 0
-0.951057 0.618034 0
-0.9919412479 0.6043572933 0
-1.048643526 0.6055619801 0
-1.116596024 0.6216777014 0
-1.193482977 0.653101239 0
-1.278546514 0.700606316 0
-1.372288541 0.7653626489 0
-1.476518726 0.848964749 0
-1.594762972 0.9534712071 0
-1.733170706 1.081455507 0
-1.90211 1.23607 0
-0.891007 0.907981 0
-0.9161964631 0.8878878155 0
-0.958194071 0.8896577087 0
-1.013398077 0.913334077 0
-1.079790087 0.9594998179 0
-1.156759908 1.029291643 0
-1.245016189 1.124428033 0
-1.346675632 1.247251532 0
-1.46556288 1.400786388 0
-1.607722282 1.588812897 0
-1.78201 1.81596 0
-0.809017 1.17557 0
-0.8236435336 1.14955526 0
-0.8545382179 1.151846962 0
-0.8990121258 1.18250108 0
-0.9555193865 1.242272313 0
-1.023686843 1.332632403 0
-1.104340675 1.455806308 0
-1.199604735 1.614826959 0
-1.313090633 1.813609916 0
-1.450145544 2.057049694 0
-1.61803 2.35114 0
-0.707107 1.41421 0
-0.7148224532 1.382916263 0
-0.7373031413 1.385673799 0
-0.7725928218 1.422550968 0
-0.8195884905 1.494455951 0
-0.8781274003 1.60315935 0
-0.9490549348 1.751337836 0
-1.034311999 1.94264008 0
-1.137049374 2.181776625 0
-1.26173926 2.474635962 0
-1.41421 2.82843 0
-0.587785 1.61803 0
-0.5912361379 1.582225994 0
-0.6072590721 1.585381004 0
-0.6344675296 1.62757304 0
-0.6721143534 1.709841175 0
-0.7201793332 1.834211211 0
-0.7794396651 2.003745604 0
-0.8515389511 2.2226189 0
-0.9390556029 2.49622054 0
-1.045552122 2.831287529 0
-1.17557 3.23607 0
-0.45399 1.78201 0
-0.4550780264 1.742576708 0
-0.4660294798 1.746051184 0
-0.4859038711 1.792519012 0
-0.5142220602 1.883124496 0
-0.5510359139 2.020098714 0
-0.5969854413 2.20681447 0
-0.6533485377 2.447869377 0
-0.7220819653 2.749199106 0
-0.8058436235 3.118223614 0
-0.907981 3.56403 0
-0.309017 1.90211 0
-0.3090564879 1.860019653 0
-0.3158769495 1.863728011 0
-0.3288964148 1.913327329 0
-0.3478341026 2.010039085 0
-0.3727568209 2.156244678 0
-0.4041176486 2.355544184 0
-0.4427877931 2.612845033 0
-0.4900800972 2.934482893 0
-0.5477594071 3.32837782 0
-0.618034 3.80423 0
-0.156434 1.97538 0
-0.1562539758 1.931663894 0
-0.1595254153 1.935513877 0
-0.1659707361 1.987023207 0
-0.1754611143 2.087459838 0
-0.1880396185 2.23929673 0
-0.203940539 2.446272553 0
-0.2236048889 2.71348368 0
-0.2476912234 3.047509612 0
-0.2770799076 3.456574774 0
-0.312869 3.95075 0
5.55112e-17 2 0
8.246930916e-12 1.955742046 0
1.493911245e-11 1.959640396 0
1.964146901e-11 2.011791785 0
2.252158182e-11 2.113480328 0
2.389767551e-11 2.267209852 0
2.352527895e-11 2.47676562 0
2.076494532e-11 2.74730752 0
1.538370126e-11 3.085497102 0
8.028105958e-12 3.499661662 0
1.11022e-16 4 0
0.156434 1.97538 0
0.1562539758 1.931663894 0
0.1595254154 1.935513877 0
0.1659707361 1.987023207 0
0.1754611143 2.087459838 0
0.1880396186 2.23929673 0
0.203940539 2.446272553 0
0.2236048889 2.71348368 0
0.2476912235 3.047509612 0
0.2770799076 3.456574774 0
0.312869 3.95075 0
0.309017 1.90211 0
0.3090564879 1.860019653 0
0.3158769495 1.863728011 0
0.3288964148 1.913327329 0
0.3478341026 2.010039085 0
0.3727568209 2.156244678 0
0.4041176486 2.355544184 0
0.4427877931 2.612845033 0
0.4900800973 2.934482893 0
0.5477594071 3.32837782 0
0.618034 3.80423 0
0.45399 1.78201 0
0.4550780264 1.742576708 0
0.4660294798 1.746051184 0
0.4859038711 1.792519012 0
0.5142220603 1.883124496 0
0.5510359139 2.020098714 0
0.5969854414 2.20681447 0
0.6533485377 2.447869377 0
0.7220819653 2.749199106 0
0.8058436235 3.118223614 0
0.907981 3.56403 0
0.587785 1.61803 0
0.5912361379 1.582225994 0
0.6072590722 1.585381004 0
0.6344675296 1.62757304 0
0.6721143534 1.709841174 0
0.7201793332 1.834211211 0
0.7794396651 2.003745604 0
0.8515389511 2.2226189 0
0.9390556029 2.49622054 0
1.045552122 2.831287529 0
1.17557 3.23607 0
0.707107 1.41421 0
0.7148224532 1.382916263 0
0.7373031413 1.385673799 0
0.7725928218 1.422550967 0
0.8195884905 1.494455951 0
0.8781274003 1.60315935 0
0.9490549349 1.751337835 0
1.034311999 1.94264008 0
1.137049374 2.181776624 0
1.26173926 2.474635962 0
1.41421 2.82843 0
0.809017 1.17557 0
0.8236435336 1.14955526 0
0.8545382179 1.151846962 0
0.8990121258 1.18250108 0
0.9555193866 1.242272313 0
1.023686843 1.332632403 0
1.104340675 1.455806308 0
1.199604735 1.614826959 0
1.313090633 1.813609916 0
1.450145544 2.057049694 0
1.61803 2.35114 0
0.891007 0.907981 0
0.9161964631 0.8878878155 0
0.958194071 0.8896577086 0
1.013398077 0.9133340769 0
1.079790087 0.9594998179 0
1.156759908 1.029291642 0
1.245016189 1.124428033 0
1.346675632 1.247251532 0
1.46556288 1.400786388 0
1.607722282 1.588812897 0
1.78201 1.81596 0
0.951057 0.618034 0
0.9919412479 0.6043572933 0
1.048643526 0.60556198 0
1.116596024 0.6216777014 0
1.193482977 0.6531012389 0
1.278546514 0.7006063159 0
1.372288541 0.7653626488 0
1.476518726 0.848964749 0
1.594762972 0.9534712071 0
1.733170706 1.081455507 0
1.90211 1.23607 0
0.987688 0.312869 0
1.051868002 0.3059453775 0
1.127842761 0.3065552168 0
1.210859517 0.3147135097 0
1.298999281 0.3306211205 0
1.391654632 0.3546697335 0
1.489072733 0.3874514975 0
1.592347758 0.4297736077 0
1.703799575 0.4826781844 0
1.82808757 0.5474679228 0
1.97538 0.625738 0
1 0 0
1.1 0 0
1.2 0 0
1.3 0 0
1.4 0 0
1.5 0 0
1.6 0 0
1.7 0 0
1.8 0 0
1.9 0 0
2 0 0
CELLS 200 1000
4 0 11 12 1
4 1 12 13 2
4 2 13 14 3
4 3 14 15 4
4 4 15 16 5
4 5 16 17 6
4 6 17 18 7
4 7 18 19 8
4 8 19 20 9
4 9 20 21 10
4 11 22 23 12
4 12 23 24 13
4 13 24 25 14
4 14 25 26 15
4 15 26 27 16
4 16 27 28 17
4 17 28 29 18
4 18 29 30 19
4 19 30 31 20
4 20 31 32 21
4 22 33 34 23
4 23 34 35 24
4 24 35 36 25
4 25 36 37 26
4 26 37 38 27
4 27 38 39 28
4 28 39 40 29
4 29 40 41 30
4 30 41 42 31
4 31 42 43 32
4 33 44 45 34
4 34 45 46 35
4 35 46 47 36
4 36 47 48 37
4 37 48 49 38
4 38 49 50 39
4 39 50 51 40
4 40 51 52 41
4 41 52 53 42
4 42 53 54 43
4 44 55 56 45
4 45 56 57 46
4 46 57 58 47
4 47 58 59 48
4 48 59 60 49
4 49 60 61 50
4 50 61 62 51
4 51 62 63 52
4 52 63 64 53
4 53 64 65 54
4 55 66 67 56
4 56 67 68 57
4 57 68 69 58
4 58 69 70 59
4 59 70 71 60
4 60 71 72 61
4 61 72 73 62
4 62 73 74 63
4 63 74 75 64
4 64 75 76 65
4 66 77 78 67
4 67 78 79 68
4 68 79 80 69
4 69 80 81 70
4 70 81 82 71
4 71 82 83 72
4 72 83 84 73
4 73 84 85 74
4 74 85 86 75
4 75 86 87 76
4 77 88 89 78
4 78 89 90 79
4 79 90 91 80
4 80 91 92 81
4 81 92 93 82
4 82 93 94 83
4 83 94 95 84
4 84 95 96 85
4 85 96 97 86
4 86 97 98 87
4 88 99 100 89
4 89 100 101 90
4 90 101 102 91
4 91 102 103 92
4 92 103 104 93
4 93 104 105 94
4 94 105 106 95
4 95 106 107 96
4 96 107 108 97
4 97 108 109 98
4 99 110 111 100
4 100 111 112 101
4 101 112 113 102
4 102 113 114 103
4 103 114 115 104
4 104 115 116 105
4 105 116 117 106
4 106 117 118 107
4 107 118 119 108
4 108 119 120 109
4 110 121 122 111
4 111 122 123 112
4 112 123 124 113
4 113 124 125 114
4 114 125 126 115
4 115 126 127 116
4 116 127 128 117
4 117 128 129 118
4 118 129 130 119
4 119 130 131 120
4 121 132 133 122
4 122 133 134 123
4 123 134 135 124
4 124 135 136 125
4 125 136 137 126
4 126 137 138 127
4 127 138 139 128
4 128 139 140 129
4 129 140 141 130
4 130 141 142 131
4 132 143 144 133
4 133 144 145 134
4 134 145 146 135
4 135 146 147 136
4 136 147 148 137
4 137 148 149 138
4 138 149 150 139
4 139 150 151 140
4 140 151 152 141
4 141 152 153 142
4 143 154 155 144
4 144 155 156 145
4 145 156 157 146
4 146 157 158 147
4 147 158 159 148
4 148 159 160 149
4 149 160 161 150
4 150 161 162 151
4 151 162 163 152
4 152 163 164 153
4 154 165 166 155
4 155 166 167 156
4 156 167 168 157
4 157 168 169 158
4 158 169 170 159
4 159 170 171 160
4 160 171 172 161
4 161 172 173 162
4 162 173 174 163
4 163 174 175 164
4 165 176 177 166
4 166 177 178 167
4 167 178 179 168
4 168 179 180 169
4 169 180 181 170
4 170 181 182 171
4 171 182 183 172
4 172 183 184 173
4 173 184 185 174
4 174 185 186 175
4 176 187 188 177
4 177 188 189 178
4 178 189 190 179
4 179 190 191 180
4 180 191 192 181
4 181 192 193 182
4 182 193 194 183
4 183 194 195 184
4 184 195 196 185
4 185 196 197 186
4 187 198 199 188
4 188 199 200 189
4 189 200 201 190
4 190 201 202 191
4 191 202 203 192
4 192 203 204 193
4 193 204 205 194
4 194 205 206 195
4 195 206 207 196
4 196 207 208 197
4 198 209 210 199
4 199 210 211 200
4 200 211 212 201
4 201 212 213 202
4 202 213 214 203
4 203 214 215 204
4 204 215 216 205
4 205 216 217 206
4 206 217 218 207
4 207 218 219 208
4 209 220 221 210
4 210 221 222 211
4 211 222 223 212
4 212 223 224 213
4 213 224 225 214
4 214 225 226 215
4 215 226 227 216
4 216 227 228 217
4 217 228 229 218
4 218 229 230 219
CELL_TYPES 200
9
9
9
9
9
9
9
9
9
9
9
9
9
9
9
9
9
9
9
9
9
9
9
9
9
9
9
9
9
9
9
9
9
9
9
9
9
9
9
9
9
9
9
9
9
9
9
9
9
9
9
9
9
9
9
9
9
9
9
9
9
9
9
9
9
9
9
9
9
9
9
9
9
9
9
9
9
9
9
9
9
9
9
9
9
9
9
9
9
9
9
9
9
9
9
9
9
9
9
9
9
9
9
9
9
9
9
9
9
9
9
9
9
9
9
9
9
9
9
9
9
9
9
9
9
9
9
9
9
9
9
9
9
9
9
9
9
9
9
9
9
9
9
9
9
9
9
9
9
9
9
9
9
9
9
9
9
9
9
9
9
9
9
9
9
9
9
9
9
9
9
9
9
9
9
9
9
9
9
9
9
9
9
9
9
9
9
9
9
9
9
9
9
9
9
9
9
9
9
9
POINT_DATA 231
SCALARS fixed int
LOOKUP_TABLE default
1
1
1
1
1
1
1
1
1
1
1
1
0
0
0
0
0
0
0
0
0
1
1
0
0
0
0
0
0
0
0
0
1
1
0
0
0
0
0
0
0
0
0
1
1
0
0
0
0
0
0
0
0
0
1
1
0
0
0
0
0
0
0
0
0
1
1
0
0
0
0
0
0
0
0
0
1
1
0
0
0
0
0
0
0
0
0
1
1
0
0
0
0
0
0
0
0
0
1
1
0
0
0
0
0
0
0
0
0
1
1
0
0
0
0
0
0
0
0
0
1
1
0
0
0
0
0
0
0
0
0
1
1
0
0
0
0
0
0
0
0
0
1
1
0
0
0
0
0
0
0
0
0
1
1
0
0
0
0
0
0
0
0
0
1
1
0
0
0
0
0
0
0
0
0
1
1
0
0
0
0
0
0
0
0
0
1
1
0
0
0
0
0
0
0
0
0
1
1
0
0
0
0
0
0
0
0
0
1
1
0
0
0
0
0
0
0
0
0
1
1
1
1
1
1
1
1
1
1
1
1
