# vtk DataFile Version 3.0
MOAB 3.99 (Alpha)
ASCII
DATASET UNSTRUCTURED_GRID
POINTS 70 double
1.4 0 3
1 6.327163877e-16 5
1.333333333 0 3.333333333
1.266666667 0 3.666666667
1.2 0 4
1.133333333 0 4.333333333
1.066666667 0 4.666666667
-0.2 3.944304526e-31 9
0.8885665282 -0.2595966396 5.371444906
0.7509735428 -0.3627193377 5.830088191
0.6110679419 -0.4186289287 6.296440194
0.4704204204 -0.4441227085 6.765265265
0.3295795796 -0.4441227085 7.234734735
0.1889320581 -0.4186289287 7.703559806
0.04902645722 -0.3627193377 8.169911809
-0.08856652822 -0.2595966396 8.628555094
-1.4 -1.714505519e-16 3
-0.4 0 8
-0.6 0 7
-0.8 0 6
-1 0 5
-1.2 0 4
-1.315569669 -0.4788282007 3
-1.07246222 -0.8999026536 3
-0.7 -1.212435565 3
-0.2431074487 -1.378730854 3
0.2431074487 -1.378730854 3
0.7 -1.212435565 3
1.07246222 -0.8999026536 3
1.315569669 -0.4788282007 3
1.244661813 -0.4423817806 3.395295863
1.173677996 -0.4059041193 3.790575322
1.102601789 -0.3693912159 4.185835022
1.031411767 -0.3328386816 4.58107063
0.9600795007 -0.2962419276 4.976276462
1.021748564 -0.8126530124 3.472414216
0.9703691039 -0.724627426 3.944628202
0.9180699746 -0.6357094464 4.416589352
0.8644807921 -0.5457859231 4.888226057
0.8090540338 -0.4547788567 5.359439048
0.6908406671 -1.089061267 3.551520972
0.6810741773 -0.9629880837 4.102525786
0.6700042081 -0.8335342814 4.652839452
0.6563810854 -0.6999401057 5.20220811
0.6379934358 -0.5615839413 5.750258398
0.2852265942 -1.241388904 3.631325449
0.3285588337 -1.099592313 4.261850991
0.372433882 -0.951458882 4.891230577
0.4148836343 -0.794402393 5.518918679
0.451031676 -0.6255442207 6.144046341
-0.1507712915 -1.248734739 3.710980938
-0.05452411929 -1.114458559 4.421042302
0.04615544296 -0.97296797 5.129689446
0.1503285453 -0.8191079055 5.83605826
0.2516987032 -0.6449006807 6.538608932
-0.56508888 -1.106057591 3.789748724
-0.4248677044 -0.9975586842 4.57866277
-0.2771008302 -0.8843625053 5.366205899
-0.1195067618 -0.7604003032 6.151329817
0.04529320949 -0.6119519294 6.931870934
-0.9049097985 -0.8280907614 3.866901166
-0.733093659 -0.7563980294 4.733207115
-0.554314604 -0.6838629587 5.598485413
-0.3638594017 -0.6069274174 6.461799348
-0.1562685086 -0.5125337276 7.320864558
-1.12582367 -0.4481630243 3.941268633
-0.9342457166 -0.4181383927 4.88224958
-0.7394387767 -0.3888653833 5.822722206
-0.5383256046 -0.359924657 6.762175826
-0.3236878636 -0.3270766208 7.699168906
CELLS 54 270
4 69 15 7 17
4 68 69 17 18
4 67 68 18 19
4 66 67 19 20
4 65 66 20 21
4 22 65 21 16
4 64 14 15 69
4 63 64 69 68
4 62 63 68 67
4 61 62 67 66
4 60 61 66 65
4 23 60 65 22
4 59 13 14 64
4 58 59 64 63
4 57 58 63 62
4 56 57 62 61
4 55 56 61 60
4 24 55 60 23
4 54 12 13 59
4 53 54 59 58
4 52 53 58 57
4 51 52 57 56
4 50 51 56 55
4 25 50 55 24
4 49 11 12 54
4 48 49 54 53
4 47 48 53 52
4 46 47 52 51
4 45 46 51 50
4 26 45 50 25
4 44 10 11 49
4 43 44 49 48
4 42 43 48 47
4 41 42 47 46
4 40 41 46 45
4 27 40 45 26
4 39 9 10 44
4 38 39 44 43
4 37 38 43 42
4 36 37 42 41
4 35 36 41 40
4 28 35 40 27
4 34 8 9 39
4 33 34 39 38
4 32 33 38 37
4 31 32 37 36
4 30 31 36 35
4 29 30 35 28
4 6 1 8 34
4 5 6 34 33
4 4 5 33 32
4 3 4 32 31
4 2 3 31 30
4 0 2 30 29
CELL_TYPES 54
9
9
9
9
9
9
9
9
9
9
9
9
9
9
9
9
9
9
9
9
9
9
9
9
9
9
9
9
9
9
9
9
9
9
9
9
9
9
9
9
9
9
9
9
9
9
9
9
9
9
9
9
9
9
POINT_DATA 70
SCALARS GLOBAL_ID int 1
LOOKUP_TABLE default
1 
2 
3 
4 
5 
6 
7 
8 
9 
10 
11 
12 
13 
14 
15 
16 
17 
18 
19 
20 
21 
22 
23 
24 
25 
26 
27 
28 
29 
30 
31 
32 
33 
34 
35 
36 
37 
38 
39 
40 
41 
42 
43 
44 
45 
46 
47 
48 
49 
50 
51 
52 
53 
54 
55 
56 
57 
58 
59 
60 
61 
62 
63 
64 
65 
66 
67 
68 
69 
70 
CELL_DATA 54
SCALARS GLOBAL_ID int 1
LOOKUP_TABLE default
54 
53 
52 
51 
50 
49 
48 
47 
46 
45 
44 
43 
42 
41 
40 
39 
38 
37 
36 
35 
34 
33 
32 
31 
30 
29 
28 
27 
26 
25 
24 
23 
22 
21 
20 
19 
18 
17 
16 
15 
14 
13 
12 
11 
10 
9 
8 
7 
6 
5 
4 
3 
2 
1 
