# vtk DataFile Version 3.0
Mesquite Mesh
ASCII
DATASET UNSTRUCTURED_GRID
POINTS 70 double
1.4 0 3
1 6.327163877e-16 5
1.333333333 0 3.333333333
1.266666667 0 3.666666667
1.2 0 4
1.133333333 0 4.333333333
1.066666667 0 4.666666667
-0.2 3.944304526e-31 9
0.8885665282 -0.2595966396 5.371444906
0.7509735428 -0.3627193377 5.830088191
0.6110679419 -0.4186289287 6.296440194
0.4704204204 -0.4441227085 6.765265265
0.3295795796 -0.4441227085 7.234734735
0.1889320581 -0.4186289287 7.703559806
0.04902645722 -0.3627193377 8.169911809
-0.08856652822 -0.2595966396 8.628555094
-1.4 -1.714505519e-16 3
-0.4 0 8
-0.6 0 7
-0.8 0 6
-1 0 5
-1.2 0 4
-1.315569669 -0.4788282007 3
-1.07246222 -0.8999026536 3
-0.7 -1.212435565 3
-0.2431074487 -1.378730854 3
0.2431074487 -1.378730854 3
0.7 -1.212435565 3
1.07246222 -0.8999026536 3
1.315569669 -0.4788282007 3
1.250702251 -0.3992943689 3.435527222
1.194060479 -0.3603524599 3.76374647
1.097066483 -0.3732445565 4.205894444
1.035701476 -0.3541145764 4.527170107
0.9419848818 -0.3357648572 4.999816111
1.049443458 -0.7827747815 3.453879144
0.9741227622 -0.7287076641 3.917381289
0.9174060628 -0.6385112412 4.411327328
0.8693354168 -0.5229126551 4.927570326
0.7775760196 -0.5223290215 5.316379411
0.7655197043 -1.055298875 3.481418609
0.6104364897 -1.021323262 4.050769137
0.6655072804 -0.8546397511 4.584030455
0.6017083434 -0.7512406579 5.187476087
0.656010154 -0.5251358505 5.79846164
0.2819677558 -1.249872804 3.593581653
0.2961610642 -1.112056725 4.245911159
0.3505964535 -0.9466113313 4.952746079
0.4885759482 -0.7374821761 5.576804274
0.4559517407 -0.6256489777 6.129184087
-0.198407342 -1.253811141 3.652937981
-0.08329766462 -1.113710266 4.415895196
0.1113266446 -0.9726690275 5.104903834
0.1915998209 -0.8000839805 5.886470897
0.2623370802 -0.6295191635 6.590032548
-0.582631711 -1.10359702 3.760236197
-0.5221917949 -0.9673810995 4.503386355
-0.2141468191 -0.915090387 5.300932868
-0.06680289 -0.7695314159 6.137872263
0.07882754325 -0.6104505159 6.922405103
-0.8113220123 -0.9108934254 3.900880719
-0.7838006198 -0.7308674022 4.641570727
-0.6073043552 -0.6609505286 5.51203225
-0.383719827 -0.5886546152 6.486614305
-0.1620195537 -0.5131905208 7.309206221
-1.074794972 -0.5230517672 4.023447101
-0.9353982701 -0.4035964197 4.90622931
-0.7131703701 -0.4506917935 5.781780383
-0.5347440041 -0.3408099842 6.829421995
-0.2917821666 -0.3486236683 7.726922269
CELLS 54 270
4 69 15 7 17
4 68 69 17 18
4 67 68 18 19
4 66 67 19 20
4 65 66 20 21
4 22 65 21 16
4 64 14 15 69
4 63 64 69 68
4 62 63 68 67
4 61 62 67 66
4 60 61 66 65
4 23 60 65 22
4 59 13 14 64
4 58 59 64 63
4 57 58 63 62
4 56 57 62 61
4 55 56 61 60
4 24 55 60 23
4 54 12 13 59
4 53 54 59 58
4 52 53 58 57
4 51 52 57 56
4 50 51 56 55
4 25 50 55 24
4 49 11 12 54
4 48 49 54 53
4 47 48 53 52
4 46 47 52 51
4 45 46 51 50
4 26 45 50 25
4 44 10 11 49
4 43 44 49 48
4 42 43 48 47
4 41 42 47 46
4 40 41 46 45
4 27 40 45 26
4 39 9 10 44
4 38 39 44 43
4 37 38 43 42
4 36 37 42 41
4 35 36 41 40
4 28 35 40 27
4 34 8 9 39
4 33 34 39 38
4 32 33 38 37
4 31 32 37 36
4 30 31 36 35
4 29 30 35 28
4 6 1 8 34
4 5 6 34 33
4 4 5 33 32
4 3 4 32 31
4 2 3 31 30
4 0 2 30 29
CELL_TYPES 54
9
9
9
9
9
9
9
9
9
9
9
9
9
9
9
9
9
9
9
9
9
9
9
9
9
9
9
9
9
9
9
9
9
9
9
9
9
9
9
9
9
9
9
9
9
9
9
9
9
9
9
9
9
9
POINT_DATA 70
SCALARS fixed int
LOOKUP_TABLE default
1
1
1
1
1
1
1
1
1
1
1
1
1
1
1
1
1
1
1
1
1
1
1
1
1
1
1
1
1
1
0
0
0
0
0
0
0
0
0
0
0
0
0
0
0
0
0
0
0
0
0
0
0
0
0
0
0
0
0
0
0
0
0
0
0
0
0
0
0
0
SCALARS GLOBAL_ID int 1
LOOKUP_TABLE default
1
2
3
4
5
6
7
8
9
10
11
12
13
14
15
16
17
18
19
20
21
22
23
24
25
26
27
28
29
30
31
32
33
34
35
36
37
38
39
40
41
42
43
44
45
46
47
48
49
50
51
52
53
54
55
56
57
58
59
60
61
62
63
64
65
66
67
68
69
70

CELL_DATA 54
SCALARS GLOBAL_ID int 1
LOOKUP_TABLE default
54
53
52
51
50
49
48
47
46
45
44
43
42
41
40
39
38
37
36
35
34
33
32
31
30
29
28
27
26
25
24
23
22
21
20
19
18
17
16
15
14
13
12
11
10
9
8
7
6
5
4
3
2
1
