# vtk DataFile Version 3.0
Mesquite Mesh
ASCII
DATASET UNSTRUCTURED_GRID
POINTS 121 double
5 -5 5
5 5 5
-5 5 5
-5 -5 5
4.133333333 4.733333333 5
3 5 5
1.95873658 4.782903958 5
1 5 5
-0.01592252131 4.743452907 5
-1 5 5
-2.035341879 4.745965591 5
-3 5 5
-4.133333333 4.733333333 5
-4.133333333 -4.733333333 5
-3 -5 5
-1.959265231 -4.784757914 5
-1 -5 5
0.01307385723 -4.745666394 5
1 -5 5
2.036458934 -4.743790788 5
3 -5 5
4.133333333 -4.733333333 5
4.742222222 -4.115555556 5
5 -3 5
4.766942086 -1.944655766 5
5 -1 5
4.74541686 0.03066776413 5
5 1 5
4.757582996 2.053045197 5
5 3 5
4.742222222 4.115555556 5
-4.742222222 4.115555556 5
-5 3 5
-4.76918785 1.945007774 5
-5 1 5
-4.745608834 -0.03237118202 5
-5 -1 5
-4.760247038 -2.050276042 5
-5 -3 5
-4.742222222 -4.115555556 5
-1.26870423 -1.442547433 5
-1.055563699 0.9186224827 5
1.268292141 1.433404828 5
1.039375167 -0.9224423146 5
2.273442005 -3.078430908 5
0.09805392919 -3.092497953 5
-1.694489235 -3.385684357 5
-3.201852782 -2.377070313 5
-3.092066258 -0.2427838651 5
-3.268908878 1.587558302 5
-2.265064093 3.094741929 5
-0.1194189099 3.075896802 5
1.690524347 3.371779683 5
3.18187247 2.397838975 5
3.090626451 0.230008231 5
3.252065642 -1.584918244 5
4 -4 5
4.126032821 -1.292459122 5
4.126032821 -2.292459122 5
4.045313226 0.6150041155 5
4.045313226 -0.3849958845 5
4.090936235 2.698919488 5
4.090936235 1.698919488 5
4 4 5
1.345262174 4.185889842 5
2.345262174 4.185889842 5
-0.5597094549 4.037948401 5
0.4402905451 4.037948401 5
-2.632532046 4.047370965 5
-1.632532046 4.047370965 5
-4 4 5
-4.134454439 1.293779151 5
-4.134454439 2.293779151 5
-4.046033129 -0.6213919326 5
-4.046033129 0.3786080674 5
-4.100926391 -2.688535157 5
-4.100926391 -1.688535157 5
-4 -4 5
-1.347244617 -4.192842178 5
-2.347244617 -4.192842178 5
0.5490269646 -4.046248977 5
-0.4509730354 -4.046248977 5
2.636721003 -4.039215454 5
1.636721003 -4.039215454 5
3.636721003 -3.039215454 5
3.171346047 -0.6774550065 5
2.762753824 -2.331674576 5
3.136249461 1.313923603 5
3.090936235 3.698919488 5
0.7855527186 3.223838243 5
2.436198408 2.884809329 5
-1.192241501 3.085319366 5
-3.632532046 3.047370965 5
-3.180487568 0.6723872182 5
-2.766986485 2.341150115 5
-3.14695952 -1.309927089 5
-3.100926391 -3.688535157 5
-0.7982176529 -3.239091155 5
-2.448171009 -2.881377335 5
1.185747967 -3.08546443 5
2.065000809 -0.3462170418 5
2.145720405 -1.253680279 5
1.656408586 -2.000436611 5
2.225082306 1.915621902 5
2.179459296 0.8317065293 5
0.5744366158 2.254650815 5
1.479408244 2.402592256 5
-1.660313896 2.006682206 5
-0.5874913043 1.997259642 5
-2.073814978 0.3379193088 5
-2.162236288 1.253090392 5
-2.235278506 -1.909808873 5
-2.180385244 -0.8426656489 5
-0.5853251504 -2.267522693 5
-1.481596732 -2.414115895 5
0.5687145483 -2.007470134 5
1.153833654 0.2554812566 5
0.1063642214 1.176013655 5
-1.162133964 -0.261962475 5
-0.1146645313 -1.182494874 5
-0.008094265659 -0.001909915951 5
CELLS 50 350
6 43 41 40 120 118 119
6 43 42 41 116 117 120
6 40 45 43 113 115 119
6 41 48 40 109 112 118
6 42 51 41 105 108 117
6 43 54 42 100 104 116
6 45 44 43 99 102 115
6 47 46 40 98 114 111
6 46 45 40 97 113 114
6 48 47 40 95 111 112
6 50 49 41 94 110 107
6 49 48 41 93 109 110
6 51 50 41 91 107 108
6 53 52 42 90 106 103
6 52 51 42 89 105 106
6 54 53 42 87 103 104
6 44 55 43 86 101 102
6 55 54 43 85 100 101
6 45 18 44 80 83 99
6 14 46 47 79 98 96
6 46 16 45 78 81 97
6 47 38 14 75 77 96
6 48 36 47 73 76 95
6 32 49 50 72 94 92
6 49 34 48 71 74 93
6 50 11 32 68 70 92
6 51 9 50 66 69 91
6 5 52 53 65 90 88
6 52 7 51 64 67 89
6 53 29 5 61 63 88
6 54 27 53 59 62 87
6 23 55 44 58 86 84
6 55 25 54 57 60 85
6 20 23 44 56 84 82
6 18 20 44 19 82 83
6 16 18 45 17 80 81
6 14 16 46 15 78 79
6 38 3 14 39 13 77
6 36 38 47 37 75 76
6 34 36 48 35 73 74
6 32 34 49 33 71 72
6 11 2 32 12 31 70
6 9 11 50 10 68 69
6 7 9 51 8 66 67
6 5 7 52 6 64 65
6 29 1 5 30 4 63
6 27 29 53 28 61 62
6 25 27 54 26 59 60
6 23 25 55 24 57 58
6 20 0 23 21 22 56
CELL_TYPES 50
22
22
22
22
22
22
22
22
22
22
22
22
22
22
22
22
22
22
22
22
22
22
22
22
22
22
22
22
22
22
22
22
22
22
22
22
22
22
22
22
22
22
22
22
22
22
22
22
22
22
POINT_DATA 121
SCALARS fixed int
LOOKUP_TABLE default
1
1
1
1
1
1
1
1
1
1
1
1
1
1
1
1
1
1
1
1
1
1
1
1
1
1
1
1
1
1
1
1
1
1
1
1
1
1
1
1
0
0
0
0
0
0
0
0
0
0
0
0
0
0
0
0
0
0
0
0
0
0
0
0
0
0
0
0
0
0
0
0
0
0
0
0
0
0
0
0
0
0
0
0
0
0
0
0
0
0
0
0
0
0
0
0
0
0
0
0
0
0
0
0
0
0
0
0
0
0
0
0
0
0
0
0
0
0
0
0
0
SCALARS GLOBAL_ID int 1
LOOKUP_TABLE default
1
2
7
12
107
8
108
9
109
10
110
11
111
117
17
118
18
119
19
120
20
121
102
3
103
4
104
5
105
6
106
112
13
113
14
114
15
115
16
116
21
22
23
24
25
26
27
28
29
30
31
32
33
34
35
36
37
38
39
40
41
42
43
44
45
46
47
48
49
50
51
52
53
54
55
56
57
58
59
60
61
62
63
64
65
66
67
68
69
70
71
72
73
74
75
76
77
78
79
80
81
82
83
84
85
86
87
88
89
90
91
92
93
94
95
96
97
98
99
100
101
SCALARS depth int 1
LOOKUP_TABLE default
0
0
0
0
0
0
0
0
0
0
0
0
0
0
0
0
0
0
0
0
0
0
0
0
0
0
0
0
0
0
0
0
0
0
0
0
0
0
0
0
2
2
2
2
1
1
1
1
1
1
1
1
1
1
1
1
1
1
1
1
1
1
1
1
1
1
1
1
1
1
1
1
1
1
1
1
1
1
1
1
1
1
1
1
1
1
1
1
1
1
1
1
1
1
1
1
1
1
1
1
2
2
2
2
2
2
2
2
2
2
2
2
2
2
2
2
2
2
2
2
3
SCALARS slaved int 1
LOOKUP_TABLE default
0
0
0
0
0
0
0
0
0
0
0
0
0
0
0
0
0
0
0
0
0
0
0
0
0
0
0
0
0
0
0
0
0
0
0
0
0
0
0
0
0
0
0
0
0
0
0
0
0
0
0
0
0
0
0
0
0
0
0
0
0
0
0
0
0
0
0
0
0
0
0
0
0
0
0
0
0
0
0
0
0
0
0
0
0
0
0
0
0
0
0
0
0
0
0
0
0
0
0
0
1
1
1
1
1
1
1
1
1
1
1
1
1
1
1
1
1
1
1
1
1

CELL_DATA 50
SCALARS GLOBAL_ID int 1
LOOKUP_TABLE default
50
49
48
47
46
45
44
43
42
41
40
39
38
37
36
35
34
33
32
31
30
29
28
27
26
25
24
23
22
21
20
19
18
17
16
15
14
13
12
11
10
9
8
7
6
5
4
3
2
1
