# vtk DataFile Version 2.0
Mesquite Mesh original_mesh .
ASCII
DATASET UNSTRUCTURED_GRID
POINTS 27 float
5 -5 5
5 5 5
5 0 5
-5 5 5
0 5 5
-5 -5 5
-5 0 5
0 -5 5
0 0 4
5 5 -5
5 -5 -5
5 0 -5
-5 -5 -5
0 -5 -5
-5 5 -5
-5 0 -5
0 5 -5
0 0 -5
-5 -5 0
5 -5 0
0 -5 0
-5 5 0
-5 0 0
5 5 0
0 5 0
5 0 0
0 0 0
CELLS 8 72
8 5 18 22 6 7 20 26 8 
8 18 12 15 22 20 13 17 26 
8 6 22 21 3 8 26 24 4 
8 22 15 14 21 26 17 16 24 
8 7 20 26 8 0 19 25 2 
8 20 13 17 26 19 10 11 25 
8 8 26 24 4 2 25 23 1 
8 26 17 16 24 25 11 9 23 
CELL_TYPES 8
12
12
12
12
12
12
12
12
POINT_DATA 27
SCALARS fixed float
LOOKUP_TABLE default
1
1
1
1
1
1
1
1
1
1
1
1
1
1
1
1
1
1
1
1
1
1
1
1
1
1
0
