# vtk DataFile Version 2.0
Mesquite Mesh original_mesh .
ASCII
DATASET UNSTRUCTURED_GRID
POINTS 8 float
0 0 1
0 0 0
0 1 0
0 1 1
1 0 1
1 0 0
1 1 0
1 1 2
CELLS 1 9
8 7 6 5 4 3 2 1 0  
CELL_TYPES 1
12
POINT_DATA 8
SCALARS fixed float
LOOKUP_TABLE default
1
1
1
1
1
1
1
0
