# vtk DataFile Version 3.0
MOAB 3.99 (Alpha)
ASCII
DATASET UNSTRUCTURED_GRID
POINTS 449 double
-5 0 0
-5 0.7272727273 0
-4.182511956 0.7366931606 0
-4.166666667 0 0
-5 0.3636363636 0
-4.591255978 0.7319829439 0
-4.174589311 0.3683465803 0
-4.583333333 0 0
-4.587294656 0.365991472 0
-5 1.454545455 0
-4.198912245 1.467887412 0
-5 1.090909091 0
-4.599456123 1.461216433 0
-4.190712101 1.102290286 0
-4.59535605 1.096599689 0
-5 2.181818182 0
-4.219963136 2.190650386 0
-5 1.818181818 0
-4.609981568 2.186234284 0
-4.209437691 1.829268899 0
-4.604718845 1.823725359 0
-5 2.909090909 0
-4.240948106 2.904088454 0
-5 2.545454545 0
-4.620474053 2.906589682 0
-4.230455621 2.54736942 0
-4.61522781 2.546411983 0
-5 3.636363636 0
-4.244808414 3.610444038 0
-5 3.272727273 0
-4.622404207 3.623403837 0
-4.24287826 3.257266246 0
-4.62143913 3.264996759 0
-5 4.363636364 0
-4.214235199 4.315894367 0
-5 4 0
-4.6071176 4.339765366 0
-4.229521806 3.963169203 0
-4.614760903 3.981584601 0
-5 5.090909091 0
-4.17632279 5.029580467 0
-5 4.727272727 0
-4.588161395 5.060244779 0
-4.195278995 4.672737417 0
-4.597639497 4.700005072 0
-5 5.818181818 0
-4.157614788 5.75806789 0
-5 5.454545455 0
-4.578807394 5.788124854 0
-4.166968789 5.393824178 0
-4.583484395 5.424184816 0
-5 6.545454545 0
-4.15669138 6.498946312 0
-5 6.181818182 0
-4.57834569 6.522200429 0
-4.157153084 6.128507101 0
-4.578576542 6.155162641 0
-5 7.272727273 0
-4.161555658 7.24790483 0
-5 6.909090909 0
-4.580777829 7.260316051 0
-4.159123519 6.873425571 0
-4.579561759 6.89125824 0
-5 8 0
-4.166666667 8 0
-5 7.636363636 0
-4.583333333 8 0
-4.164111162 7.623952415 0
-4.582055581 7.630158026 0
0 8 0
0 7 0
-0.771341662 7.059000307 0
-0.8333333333 8 0
0 7.5 0
-0.385670831 7.029500153 0
-0.8023374976 7.529500153 0
-0.4166666667 8 0
-0.4011687488 7.514750077 0
0.4363863283 6.044065303 0
-0.5859064069 6.114782533 0
0.2181931642 6.522032651 0
-0.07476003927 6.079423918 0
-0.6786240344 6.58689142 0
-0.2302154351 6.554462036 0
2 7 0
1.704178264 6.033512421 0
1 6 0
1.852089132 6.516756211 0
1.070282296 6.038788862 0
1.035141148 6.019394431 0
2.8 7 0
2.706570401 6.079790387 0
2.4 7 0
2.7532852 6.539895194 0
2.205374332 6.056651404 0
2.302687166 6.528325702 0
3.6 7 0
3.552057426 6.145010515 0
3.2 7 0
3.576028713 6.572505258 0
3.129313913 6.112400451 0
3.164656957 6.556200226 0
4.4 7 0
4.374618017 6.16355504 0
4 7 0
4.387309009 6.58177752 0
3.963337721 6.154282778 0
3.981668861 6.577141389 0
5.2 7 0
5.187861904 6.156841788 0
4.8 7 0
5.193930952 6.578420894 0
4.781239961 6.160198414 0
4.79061998 6.580099207 0
6 7 0
6 6.142857143 0
5.6 7 0
6 6.571428571 0
5.593930952 6.149849465 0
5.596965476 6.574924733 0
6 1 0
5.2 1 0
5.135725323 1.886610042 0
6 1.857142857 0
5.6 1 0
5.167862661 1.443305021 0
5.567862661 1.87187645 0
6 1.428571429 0
5.583931331 1.435938225 0
4.4 1 0
4.261942215 1.924446321 0
4.8 1 0
4.330971108 1.46222316 0
4.698833769 1.905528181 0
4.749416884 1.452764091 0
3.6 1 0
3.365607499 1.965924963 0
4 1 0
3.48280375 1.482962482 0
3.813774857 1.945185642 0
3.906887429 1.472592821 0
2.8 1 0
2.432895854 1.979139303 0
3.2 1 0
2.616447927 1.489569652 0
2.899251677 1.972532133 0
3.049625838 1.486266067 0
2 1 0
1.377528245 1.973445722 0
2.4 1 0
1.688764123 1.486722861 0
1.90521205 1.976292512 0
2.152606025 1.488146256 0
0 1 0
0.09530129329 1.912961513 0
1 2 0
0.04765064664 1.456480756 0
0.7364147692 1.943203617 0
0.8682073846 1.971601809 0
-0.8469236422 0.894312312 0
-0.8978271289 1.755637463 0
-0.4234618211 0.947156156 0
-0.8723753856 1.324974887 0
-0.4012629178 1.834299488 0
-0.4123623695 1.390727822 0
0 0 0
-0.8333333333 0 0
0 0.5 0
-0.4166666667 0 0
-0.8401284878 0.447156156 0
-0.4200642439 0.473578078 0
-1.666666667 0 0
-1.688810477 0.8218537458 0
-1.25 0 0
-1.677738572 0.4109268729 0
-1.26786706 0.8580830289 0
-1.25893353 0.4290415144 0
-2.5 0 0
-2.528315579 0.7753146577 0
-2.083333333 0 0
-2.514157789 0.3876573288 0
-2.108563028 0.7985842017 0
-2.095948181 0.3992921009 0
-3.333333333 0 0
-3.358655354 0.7499806029 0
-2.916666667 0 0
-3.345994344 0.3749903014 0
-2.943485467 0.7626476303 0
-2.930076067 0.3813238151 0
-3.75 0 0
-3.770583655 0.7433368817 0
-3.760291828 0.3716684409 0
-3.333333333 8 0
-3.315782799 7.216763025 0
-3.75 8 0
-3.324558066 7.608381512 0
-3.738669228 7.232333927 0
-3.744334614 7.616166964 0
-2.5 8 0
-2.463094888 7.17448396 0
-2.916666667 8 0
-2.481547444 7.58724198 0
-2.889438843 7.195623492 0
-2.903052755 7.597811746 0
-1.666666667 8 0
-1.607319525 7.121165142 0
-2.083333333 8 0
-1.636993096 7.560582571 0
-2.035207206 7.147824551 0
-2.05927027 7.573912275 0
-1.25 8 0
-1.189330594 7.090082724 0
-1.219665297 7.545041362 0
6 5.285714286 0
5.175569168 5.31916083 0
6 5.714285714 0
5.587784584 5.302437558 0
5.181715536 5.738001309 0
5.590857768 5.726143512 0
6 4.428571429 0
5.146656817 4.485917952 0
6 4.857142857 0
5.573328408 4.45724469 0
5.161112992 4.902539391 0
5.580556496 4.879841124 0
6 3.571428571 0
5.104022177 3.649225913 0
6 4 0
5.552011089 3.610327242 0
5.125339497 4.067571933 0
5.562669748 4.033785966 0
6 2.714285714 0
5.093184865 2.773942391 0
6 3.142857143 0
5.546592433 2.744114053 0
5.098603521 3.211584152 0
5.549301761 3.177220647 0
6 2.285714286 0
5.114455094 2.330276217 0
5.557227547 2.307995251 0
-3.389288185 1.488828032 0
-3.794100215 1.478357722 0
-3.37397177 1.119404317 0
-3.782341935 1.110847302 0
-3.434335519 2.20883551 0
-3.827149327 2.199742948 0
-3.411811852 1.848831771 0
-3.810624771 1.839050335 0
-3.484213835 2.904950411 0
-3.86258097 2.904519432 0
-3.459274677 2.55689296 0
-3.844865149 2.55213119 0
-3.484912243 3.574355522 0
-3.864860328 3.59239978 0
-3.484563039 3.239652966 0
-3.863720649 3.248459606 0
-3.424675016 4.247255306 0
-3.819455107 4.281574837 0
-3.454793629 3.910805414 0
-3.842157718 3.936987308 0
-3.36187085 4.944545117 0
-3.76909682 4.987062792 0
-3.393272933 4.595900211 0
-3.794275964 4.634318814 0
-3.314026314 5.678612435 0
-3.735820551 5.718340163 0
-3.337948582 5.311578776 0
-3.752458686 5.352701477 0
-3.299085505 6.439229538 0
-3.727888443 6.469087925 0
-3.30655591 6.058920987 0
-3.731854497 6.093714044 0
-3.307434152 6.827996281 0
-3.733278835 6.850710926 0
-1.554742777 6.254044328 0
-1.070324592 6.18441343 0
-1.581031151 6.687604735 0
-1.129827593 6.637248077 0
-0.5510266926 5.14542465 0
-1.562488946 5.393825248 0
-0.5684665497 5.630103591 0
-1.056757819 5.269624949 0
-1.558615862 5.823934788 0
-1.063541206 5.72701919 0
0.5974521361 5.049489076 0
0.5169192322 5.546777189 0
0.02321272177 5.097456863 0
-0.02577365875 5.58844039 0
1.755231212 5.05748867 0
1.729704738 5.545500546 0
1.176341674 5.053488873 0
1.123311985 5.546138867 0
2.764091021 5.129169759 0
2.735330711 5.604480073 0
2.259661116 5.093329215 0
2.232517724 5.574990309 0
3.584790844 5.32341813 0
3.568424135 5.734214322 0
3.174440933 5.226293944 0
3.151877423 5.669347198 0
4.364137569 5.338209268 0
4.369377793 5.750882154 0
3.974464206 5.330813699 0
3.968900964 5.742548238 0
4.769853368 5.328685049 0
4.775546664 5.744441732 0
4.185247836 2.85109026 0
4.223595026 2.38776829 0
4.639216351 2.812516325 0
4.66902506 2.359022253 0
3.21480871 2.964374633 0
3.290208105 2.465149798 0
3.700028273 2.907732446 0
3.756901565 2.426459044 0
2.154496777 2.987580156 0
2.293696316 2.48335973 0
2.684652743 2.975977394 0
2.79195221 2.474254764 0
1.056796195 2.963428973 0
1.21716222 2.468437347 0
1.605646486 2.975504565 0
1.755429268 2.475898538 0
-0.123111009 2.876988695 0
-0.01390485785 2.394975104 0
0.4668425928 2.920208834 0
0.601628681 2.431706226 0
-1.078054274 2.599636529 0
-0.9879407013 2.177636996 0
-0.6005826414 2.738312612 0
-0.5009227796 2.28630605 0
-1.76358471 1.619200769 0
-1.886613676 2.373463577 0
-1.33070592 1.687419116 0
-1.825099193 1.996332173 0
-1.482333975 2.486550053 0
-1.406519947 2.086984584 0
-1.726197594 1.220527257 0
-1.29928649 1.272751072 0
-2.573299815 1.533652169 0
-2.550807697 1.154483414 0
-2.168442263 1.576426469 0
-2.138502645 1.187505336 0
-2.981294 1.511240101 0
-2.962389733 1.136943865 0
-2.434993057 6.359433103 0
-2.449043972 6.766958531 0
-2.867039281 6.399331321 0
-2.878239062 6.797477406 0
-1.994867917 6.306738715 0
-2.015037562 6.727281633 0
4.34278755 4.560283455 0
4.744722183 4.523100703 0
4.353462559 4.949246361 0
4.757287776 4.925892876 0
4.178135783 3.770469926 0
4.64107898 3.70984792 0
4.260461667 4.16537669 0
4.692900582 4.116474312 0
4.18169181 3.310780093 0
4.640147665 3.261182122 0
-2.661075817 2.258037238 0
-3.047705668 2.233436374 0
-2.617187816 1.895844704 0
-3.014499834 1.872338237 0
-2.747901172 2.928467549 0
-3.116057504 2.91670898 0
-2.704488495 2.593252393 0
-3.081881586 2.575072677 0
-2.804230853 3.530744389 0
-3.144571548 3.552549955 0
-2.776066012 3.229605969 0
-3.130314526 3.234629467 0
-2.684725918 4.131253819 0
-3.054700467 4.189254562 0
-2.744478385 3.830999104 0
-3.099636007 3.870902259 0
-2.533100851 4.811006508 0
-2.947485851 4.877775812 0
-2.608913385 4.471130164 0
-3.001093159 4.533515187 0
-2.458929225 5.566054222 0
-2.886477769 5.622333329 0
-2.496015038 5.188530365 0
-2.91698181 5.250054571 0
-2.446961141 5.962743662 0
-2.876758525 6.010832325 0
3.123556529 4.080321506 0
3.16918262 3.522348069 0
3.650846156 3.925395716 0
3.675437215 3.416564081 0
1.951470382 4.034200724 0
2.052983579 3.51089044 0
2.537513456 4.057261115 0
2.611083099 3.516619255 0
0.7703638156 4.008131404 0
0.9135800051 3.485780188 0
1.360917099 4.021166064 0
1.483281792 3.498335314 0
-0.6075161468 4.009085404 0
-0.3653135779 3.44303705 0
0.0814238344 4.008608404 0
0.2741332136 3.464408619 0
-1.440722337 3.377567202 0
-1.259388306 2.988601865 0
-1.024119242 3.693326303 0
-0.8123509417 3.215819457 0
-2.088954354 3.027852274 0
-1.987784015 2.700657925 0
-1.764838346 3.202709738 0
-1.62358616 2.844629895 0
-2.273844747 2.315750407 0
-2.418427763 2.978159911 0
-2.346136255 2.646955159 0
-2.221143505 1.946088438 0
-2.010709086 5.479939735 0
-2.002788501 5.893339225 0
-1.69266746 4.570566029 0
-1.627578203 4.982195638 0
-2.112884156 4.690786269 0
-2.061796621 5.085363002 0
-0.5792714197 4.577255027 0
-1.150091803 4.289825716 0
-1.103424811 4.779725333 0
0.6839079758 4.52881024 0
0.05231827808 4.553032633 0
1.853350797 4.545844697 0
1.268629386 4.537327468 0
-2.002621707 3.914658438 0
-1.721672022 3.64611282 0
-1.847644584 4.242612233 0
-1.435881913 3.967969268 0
2.943823775 4.604745633 0
2.398587286 4.575295165 0
3.683711641 4.654674363 0
3.634251243 4.989046247 0
3.403634085 4.367497935 0
3.289037509 4.79689594 0
4.013249596 4.607478909 0
3.993856901 4.969146304 0
3.832047876 4.266437313 0
-2.343673812 4.022956128 0
-2.228278984 4.356871198 0
-2.295926481 3.492523576 0
-2.550078667 3.511633983 0
-2.192440417 3.260187925 0
-2.484253215 3.244896947 0
-2.149274094 3.703591007 0
-2.44687624 3.767295055 0
-1.95705622 3.453150372 0
CELLS 101 1010
9 2 1 0 3 5 4 7 6 8
9 10 9 1 2 12 11 5 13 14
9 16 15 9 10 18 17 12 19 20
9 22 21 15 16 24 23 18 25 26
9 28 27 21 22 30 29 24 31 32
9 34 33 27 28 36 35 30 37 38
9 40 39 33 34 42 41 36 43 44
9 46 45 39 40 48 47 42 49 50
9 52 51 45 46 54 53 48 55 56
9 58 57 51 52 60 59 54 61 62
9 64 63 57 58 66 65 60 67 68
9 71 70 69 72 74 73 76 75 77
9 79 78 70 71 81 80 74 82 83
9 85 84 70 78 87 86 80 88 89
9 91 90 84 85 93 92 87 94 95
9 97 96 90 91 99 98 93 100 101
9 103 102 96 97 105 104 99 106 107
9 109 108 102 103 111 110 105 112 113
9 115 114 108 109 117 116 111 118 119
9 122 121 120 123 125 124 127 126 128
9 130 129 121 122 132 131 125 133 134
9 136 135 129 130 138 137 132 139 140
9 142 141 135 136 144 143 138 145 146
9 148 147 141 142 150 149 144 151 152
9 154 153 147 148 156 155 150 157 158
9 160 159 153 154 162 161 156 163 164
9 166 165 153 159 168 167 161 169 170
9 172 171 166 159 174 173 169 175 176
9 178 177 171 172 180 179 174 181 182
9 184 183 177 178 186 185 180 187 188
9 2 3 183 184 6 189 186 190 191
9 193 192 64 58 195 194 67 196 197
9 199 198 192 193 201 200 195 202 203
9 205 204 198 199 207 206 201 208 209
9 71 72 204 205 75 210 207 211 212
9 214 213 115 109 216 215 118 217 218
9 220 219 213 214 222 221 216 223 224
9 226 225 219 220 228 227 222 229 230
9 232 231 225 226 234 233 228 235 236
9 122 123 231 232 126 237 234 238 239
9 240 10 2 184 241 13 190 242 243
9 244 16 10 240 245 19 241 246 247
9 248 22 16 244 249 25 245 250 251
9 252 28 22 248 253 31 249 254 255
9 256 34 28 252 257 37 253 258 259
9 260 40 34 256 261 43 257 262 263
9 264 46 40 260 265 49 261 266 267
9 268 52 46 264 269 55 265 270 271
9 193 58 52 268 196 61 269 272 273
9 274 79 71 205 275 82 211 276 277
9 279 278 79 274 281 280 275 282 283
9 284 78 79 278 285 81 280 286 287
9 288 85 78 284 289 88 285 290 291
9 292 91 85 288 293 94 289 294 295
9 296 97 91 292 297 100 293 298 299
9 300 103 97 296 301 106 297 302 303
9 214 109 103 300 217 112 301 304 305
9 306 130 122 232 307 133 238 308 309
9 310 136 130 306 311 139 307 312 313
9 314 142 136 310 315 145 311 316 317
9 318 148 142 314 319 151 315 320 321
9 322 154 148 318 323 157 319 324 325
9 326 160 154 322 327 163 323 328 329
9 331 330 160 326 333 332 327 334 335
9 172 159 160 330 175 162 332 336 337
9 338 178 172 330 339 181 336 340 341
9 240 184 178 338 242 187 339 342 343
9 344 199 193 268 345 202 272 346 347
9 274 205 199 344 276 208 345 348 349
9 350 220 214 300 351 223 304 352 353
9 354 226 220 350 355 229 351 356 357
9 306 232 226 354 308 235 355 358 359
9 360 244 240 338 361 246 342 362 363
9 364 248 244 360 365 250 361 366 367
9 368 252 248 364 369 254 365 370 371
9 372 256 252 368 373 258 369 374 375
9 376 260 256 372 377 262 373 378 379
9 380 264 260 376 381 266 377 382 383
9 344 268 264 380 346 270 381 384 385
9 386 310 306 354 387 312 358 388 389
9 390 314 310 386 391 316 387 392 393
9 394 318 314 390 395 320 391 396 397
9 398 322 318 394 399 324 395 400 401
9 402 326 322 398 403 328 399 404 405
9 406 331 326 402 407 334 403 408 409
9 364 360 331 406 366 410 407 411 412
9 338 330 331 360 340 333 410 362 413
9 380 279 274 344 414 282 348 384 415
9 416 279 380 376 417 414 382 418 419
9 398 278 279 416 420 281 417 421 422
9 394 284 278 398 423 286 420 400 424
9 390 288 284 394 425 290 423 396 426
9 427 402 398 416 428 404 421 429 430
9 386 292 288 390 431 294 425 392 432
9 433 296 292 386 434 298 431 435 436
9 433 350 300 296 437 352 302 434 438
9 433 386 354 350 435 388 356 437 439
9 427 416 376 372 429 418 378 440 441
9 442 368 364 406 443 370 411 444 445
9 427 372 368 442 440 374 443 446 447
9 402 427 442 406 428 446 444 408 448
CELL_TYPES 101
28
28
28
28
28
28
28
28
28
28
28
28
28
28
28
28
28
28
28
28
28
28
28
28
28
28
28
28
28
28
28
28
28
28
28
28
28
28
28
28
28
28
28
28
28
28
28
28
28
28
28
28
28
28
28
28
28
28
28
28
28
28
28
28
28
28
28
28
28
28
28
28
28
28
28
28
28
28
28
28
28
28
28
28
28
28
28
28
28
28
28
28
28
28
28
28
28
28
28
28
28
POINT_DATA 449
SCALARS fixed int 1
LOOKUP_TABLE default
1 
1 
0 
1 
1 
0 
0 
1 
0 
1 
0 
1 
0 
0 
0 
1 
0 
1 
0 
0 
0 
1 
0 
1 
0 
0 
0 
1 
0 
1 
0 
0 
0 
1 
0 
1 
0 
0 
0 
1 
0 
1 
0 
0 
0 
1 
0 
1 
0 
0 
0 
1 
0 
1 
0 
0 
0 
1 
0 
1 
0 
0 
0 
1 
1 
1 
1 
0 
0 
1 
1 
0 
1 
1 
0 
0 
1 
0 
0 
0 
0 
0 
0 
0 
1 
0 
1 
0 
0 
0 
1 
0 
1 
0 
0 
0 
1 
0 
1 
0 
0 
0 
1 
0 
1 
0 
0 
0 
1 
0 
1 
0 
0 
0 
1 
1 
1 
1 
0 
0 
1 
1 
0 
1 
1 
0 
0 
1 
0 
1 
0 
1 
0 
0 
0 
1 
0 
1 
0 
0 
0 
1 
0 
1 
0 
0 
0 
1 
0 
1 
0 
0 
0 
1 
0 
1 
0 
0 
0 
0 
0 
0 
0 
0 
0 
1 
1 
1 
1 
0 
0 
1 
0 
1 
0 
0 
0 
1 
0 
1 
0 
0 
0 
1 
0 
1 
0 
0 
0 
1 
0 
0 
1 
0 
1 
0 
0 
0 
1 
0 
1 
0 
0 
0 
1 
0 
1 
0 
0 
0 
1 
0 
0 
1 
0 
1 
0 
0 
0 
1 
0 
1 
0 
0 
0 
1 
0 
1 
0 
0 
0 
1 
0 
1 
0 
0 
0 
1 
0 
0 
0 
0 
0 
0 
0 
0 
0 
0 
0 
0 
0 
0 
0 
0 
0 
0 
0 
0 
0 
0 
0 
0 
0 
0 
0 
0 
0 
0 
0 
0 
0 
0 
0 
0 
0 
0 
0 
0 
0 
0 
0 
0 
0 
0 
0 
0 
0 
0 
0 
0 
0 
0 
0 
0 
0 
0 
0 
0 
0 
0 
0 
0 
0 
0 
0 
0 
0 
0 
0 
0 
0 
0 
0 
0 
0 
0 
0 
0 
0 
0 
0 
0 
0 
0 
0 
0 
0 
0 
0 
0 
0 
0 
0 
0 
0 
0 
0 
0 
0 
0 
0 
0 
0 
0 
0 
0 
0 
0 
0 
0 
0 
0 
0 
0 
0 
0 
0 
0 
0 
0 
0 
0 
0 
0 
0 
0 
0 
0 
0 
0 
0 
0 
0 
0 
0 
0 
0 
0 
0 
0 
0 
0 
0 
0 
0 
0 
0 
0 
0 
0 
0 
0 
0 
0 
0 
0 
0 
0 
0 
0 
0 
0 
0 
0 
0 
0 
0 
0 
0 
0 
0 
0 
0 
0 
0 
0 
0 
0 
0 
0 
0 
0 
0 
0 
0 
0 
0 
0 
0 
0 
0 
0 
0 
0 
0 
0 
0 
0 
0 
0 
0 
0 
0 
0 
0 
0 
0 
0 
0 
CELL_DATA 101
SCALARS GLOBAL_ID int 1
LOOKUP_TABLE default
1 
2 
3 
4 
5 
6 
7 
8 
9 
10 
11 
12 
13 
14 
15 
16 
17 
18 
19 
20 
21 
22 
23 
24 
25 
26 
27 
28 
29 
30 
31 
32 
33 
34 
35 
36 
37 
38 
39 
40 
41 
42 
43 
44 
45 
46 
47 
48 
49 
50 
51 
52 
53 
54 
55 
56 
57 
58 
59 
60 
61 
62 
63 
64 
65 
66 
67 
68 
69 
70 
71 
72 
73 
74 
75 
76 
77 
78 
79 
80 
81 
82 
83 
84 
85 
86 
87 
88 
89 
90 
91 
92 
93 
94 
95 
96 
97 
98 
99 
100 
101 
