# vtk DataFile Version 2.0
MOAB vtk data file
ASCII
DATASET UNSTRUCTURED_GRID
POINTS 15 float
0 0 1
0 0 -1
1 0 0
0.612372 0.612372 0.5
0.612372 0.612372 -0.5
0 1 0
-0.612372 0.612372 0.5
-0.612372 0.612372 -0.5
-1 0 0
-0.612372 -0.612372 0.5
-0.612372 -0.612372 -0.5
0 -1 0
0.612372 -0.612372 0.5
0.612372 -0.612372 -0.5
0 0 0
CELLS 12 72
5 0 3 2 12 14
5 0 6 5 3 14
5 0 9 8 6 14
5 0 12 11 9 14
5 1 13 2 4 14
5 1 10 11 13 14
5 1 7 8 10 14
5 1 4 5 7 14
5 3 5 4 2 14
5 6 8 7 5 14
5 9 11 10 8 14
5 12 2 13 11 14
CELL_TYPES 12
14
14
14
14
14
14
14
14
14
14
14
14
POINT_DATA 15
SCALARS fixed bit
LOOKUP_TABLE default
1
1
1
1
1
1
1
1
1
1
1
1
1
1
0
