# vtk DataFile Version 3.0
MOAB 3.99 (Alpha)
ASCII
DATASET UNSTRUCTURED_GRID
POINTS 183 double
5.650017861 10 -14.46375755
6.99358595 10 -8.00641405
6.345994797 10 -12.939397
6.862178584 10 -11.34935152
6.99358595 10 -9.682140454
4.463757552 10 -15.65001786
-6.99358595 10 -8.00641405
6.327530146 10 -8.00641405
5.661474341 10 -8.00641405
4.995418536 10 -8.00641405
4.329362731 10 -8.00641405
3.663306926 10 -8.00641405
2.997251122 10 -8.00641405
2.331195317 10 -8.00641405
1.665139512 10 -8.00641405
0.9990837072 10 -8.00641405
0.3330279024 10 -8.00641405
-0.3330279024 10 -8.00641405
-0.9990837072 10 -8.00641405
-1.665139512 10 -8.00641405
-2.331195317 10 -8.00641405
-2.997251122 10 -8.00641405
-3.663306926 10 -8.00641405
-4.329362731 10 -8.00641405
-4.995418536 10 -8.00641405
-5.661474341 10 -8.00641405
-6.327530146 10 -8.00641405
-6.99358595 10 -8.890834287
-6.99358595 10 -9.775254524
-6.962496876 10 -10.65869697
-6.823818984 10 -11.53158053
-6.57615624 10 -12.38000285
-6.223464124 10 -13.19041357
-5.771375568 10 -13.94986943
-5.227110985 10 -14.64624097
-4.599362958 10 -15.26840629
-3.898157399 10 -15.80642862
-3.134693432 10 -16.25171509
-2.321164524 10 -16.59715391
-1.470563739 10 -16.837228
-0.5964762267 10 -16.96810308
0.2871377502 10 -16.98768891
1.166165781 10 -16.89567269
2.026568698 10 -16.69352402
2.8546048 10 -16.38447146
3.659225669 10 -16.01734279
4.358914123 10 -15.28228076
4.254070694 10 -14.91454366
4.149227265 10 -14.54680656
4.044383836 10 -14.17906947
4.179069465 10 -14.04438384
4.546806564 10 -14.14922727
4.914543663 10 -14.25407069
5.282280762 10 -14.35891412
3.574372399 10 -15.45390574
3.494146169 10 -14.91316119
3.469441692 10 -14.35892482
3.567400085 10 -13.81440963
3.854963592 10 -13.28814852
4.340761436 10 -12.46945879
5.03315057 10 -12.64949576
5.68895634 10 -12.78191346
6.265512055 10 -9.584026436
5.558506734 10 -9.499738974
4.880220613 10 -9.376411358
4.215017338 10 -9.261785176
3.571125111 10 -9.17233194
2.918760765 10 -9.190903636
2.248756753 10 -9.128785699
1.575226403 10 -9.065289174
0.8969265333 10 -9.021745765
0.2205210647 10 -8.990354099
-0.461311096 10 -8.975299084
-1.136331702 10 -8.949287334
-1.809106107 10 -8.918430309
-2.487541085 10 -8.876416698
-3.154867876 10 -8.825781199
-3.82495641 10 -8.791684927
-4.48262291 10 -8.76720288
-5.096513892 10 -8.677103541
-5.692961557 10 -8.703730682
-6.33556057 10 -8.782318147
-6.286367765 10 -9.554990796
-6.162659821 10 -10.33399351
-5.997549137 10 -11.1427238
-5.710395038 10 -11.91638086
-5.344996457 10 -12.67955415
-4.852968824 10 -13.39914477
-4.337468893 10 -14.11794742
-3.888785181 10 -14.84041377
-3.593200815 10 -15.37509063
-3.017712344 10 -15.49027636
-2.280780215 10 -15.69592305
-1.4738911 10 -15.88984569
-0.6403210284 10 -16.00457464
0.2053058098 10 -16.03135754
1.05481214 10 -15.96274787
1.900125998 10 -15.81224701
2.733619632 10 -15.6222355
6.090694289 10 -11.16124208
-5.656744329 10 -9.367301203
-5.445064392 10 -10.02322494
-5.250281305 10 -10.77232807
-4.989231308 10 -11.49086378
-4.58534308 10 -12.15232258
-4.049350264 10 -12.83334314
-3.324450608 10 -13.64927768
-3.114867188 10 -14.70816582
-2.299088289 10 -14.83829802
-1.489996192 10 -14.97790172
-0.6862408487 10 -15.09091837
0.1317202635 10 -15.12059724
0.9555349102 10 -15.06861274
1.774242555 10 -14.95547045
2.632886005 10 -14.85127439
5.374025361 10 -10.9390162
4.688192163 10 -10.66328514
4.051998206 10 -10.29214306
1.488256449 10 -10.07757592
2.187715034 10 -10.24789123
0.7996452395 10 -9.992195568
0.1107899944 10 -9.946027335
-0.5727444229 10 -9.904636596
-1.257084608 10 -9.863188867
-1.938490441 10 -9.813064816
-2.611024804 10 -9.718615411
-3.28187486 10 -9.626839337
-3.952539501 10 -9.581807337
-4.714475493 10 -9.62524819
-5.155911238 10 -9.223217645
2.504890303 10 -13.8756269
2.916620571 10 -13.12078791
3.294897792 10 -12.38861457
-4.594345129 10 -10.46081157
-4.386723147 10 -11.09890609
-3.976026543 10 -11.59937656
-3.437196567 10 -12.11920415
-2.789132873 10 -12.64041388
-1.495778905 10 -14.10096735
-2.304908402 10 -13.92711735
-0.7100792754 10 -14.19873243
0.06149031763 10 -14.23604185
0.8292254099 10 -14.17774501
1.615530791 10 -14.0606693
2.366757291 10 -12.405653
1.949959094 10 -12.9393279
2.678065219 10 -11.65471337
1.361262694 10 -11.02797497
2.025456345 10 -11.23101857
0.6998111444 10 -10.90461758
0.02563774581 10 -10.84624489
-0.6579942762 10 -10.80143043
-1.350835597 10 -10.76580264
-2.063113289 10 -10.71205751
-2.741967364 10 -10.54844014
-3.383684287 10 -10.39155383
-3.982078147 10 -10.31889618
-3.962445459 10 -10.8228812
-3.545792848 10 -11.0485331
-2.972625901 10 -11.37162661
-2.236022891 10 -11.78338588
-1.418661382 10 -13.24898171
-2.13175451 10 -13.07662809
-0.7084019195 10 -13.35876822
-0.006117183287 10 -13.38496782
0.6875417055 10 -13.32537589
1.351335854 10 -13.20802139
0.6140889534 10 -11.7547084
1.229918567 10 -11.82592899
-0.03064230905 10 -11.71941172
-0.7010411271 10 -11.69595838
-1.407998361 10 -11.69518967
0.5972489447 10 -12.5486701
1.172363909 10 -12.51381716
-0.6791591537 10 -12.53338596
-1.331462202 10 -12.48270954
-0.03628531445 10 -12.55408894
3.657893572 10 -11.34052539
2.942597128 10 -10.50683645
1.635706905 10 -12.46774392
1.82341876 10 -11.97976972
-1.892243081 10 -12.44773276
3.522122173 10 -9.993339375
CELLS 155 775
4 66 65 117 182
4 178 182 117 177
4 67 66 182 178
4 175 161 162 181
4 160 181 162 137
4 171 175 181 160
4 162 139 106 137
4 139 108 107 106
4 117 116 59 177
4 116 115 60 59
4 146 148 119 178
4 144 180 148 146
4 170 174 175 171
4 148 180 168 147
4 145 179 180 144
4 179 173 168 180
4 165 172 173 166
4 145 166 173 179
4 165 164 176 172
4 167 172 176 169
4 178 119 68 67
4 58 132 177 59
4 132 146 178 177
4 170 169 176 174
4 164 163 174 176
4 163 161 175 174
4 157 156 155 158
4 167 168 173 172
4 155 154 159 158
4 154 153 160 159
4 153 152 171 160
4 152 151 170 171
4 151 150 169 170
4 150 149 167 169
4 149 147 168 167
4 130 143 166 145
4 143 142 165 166
4 142 141 164 165
4 141 140 163 164
4 140 138 161 163
4 138 139 162 161
4 137 136 159 160
4 136 135 158 159
4 135 134 157 158
4 134 133 156 157
4 128 127 156 133
4 127 126 155 156
4 126 125 154 155
4 125 124 153 154
4 124 123 152 153
4 123 122 151 152
4 122 121 150 151
4 121 120 149 150
4 120 118 147 149
4 118 119 148 147
4 132 131 144 146
4 131 130 145 144
4 114 113 143 130
4 113 112 142 143
4 112 111 141 142
4 111 110 140 141
4 110 109 138 140
4 109 108 139 138
4 106 105 136 137
4 105 104 135 136
4 104 103 134 135
4 103 102 133 134
4 102 101 128 133
4 101 100 129 128
4 58 57 131 132
4 57 56 130 131
4 56 55 114 130
4 99 61 60 115
4 80 79 129 100
4 79 78 128 129
4 78 77 127 128
4 77 76 126 127
4 76 75 125 126
4 75 74 124 125
4 74 73 123 124
4 73 72 122 123
4 72 71 121 122
4 71 70 120 121
4 70 69 118 120
4 69 68 119 118
4 65 64 116 117
4 64 63 115 116
4 63 62 99 115
4 54 98 114 55
4 98 97 113 114
4 97 96 112 113
4 96 95 111 112
4 95 94 110 111
4 94 93 109 110
4 93 92 108 109
4 92 91 107 108
4 91 90 89 107
4 89 88 106 107
4 88 87 105 106
4 87 86 104 105
4 86 85 103 104
4 85 84 102 103
4 84 83 101 102
4 83 82 100 101
4 82 81 80 100
4 4 3 99 62
4 3 2 61 99
4 45 44 98 54
4 44 43 97 98
4 43 42 96 97
4 42 41 95 96
4 41 40 94 95
4 40 39 93 94
4 39 38 92 93
4 38 37 91 92
4 37 36 90 91
4 36 35 89 90
4 35 34 88 89
4 34 33 87 88
4 33 32 86 87
4 32 31 85 86
4 31 30 84 85
4 30 29 83 84
4 29 28 82 83
4 28 27 81 82
4 6 26 81 27
4 26 25 80 81
4 25 24 79 80
4 24 23 78 79
4 23 22 77 78
4 22 21 76 77
4 21 20 75 76
4 20 19 74 75
4 19 18 73 74
4 18 17 72 73
4 17 16 71 72
4 16 15 70 71
4 15 14 69 70
4 14 13 68 69
4 13 12 67 68
4 12 11 66 67
4 11 10 65 66
4 10 9 64 65
4 9 8 63 64
4 8 7 62 63
4 7 1 4 62
4 0 53 61 2
4 53 52 60 61
4 52 51 59 60
4 51 50 58 59
4 50 49 57 58
4 49 48 56 57
4 48 47 55 56
4 47 46 54 55
4 46 5 45 54
CELL_TYPES 155
9
9
9
9
9
9
9
9
9
9
9
9
9
9
9
9
9
9
9
9
9
9
9
9
9
9
9
9
9
9
9
9
9
9
9
9
9
9
9
9
9
9
9
9
9
9
9
9
9
9
9
9
9
9
9
9
9
9
9
9
9
9
9
9
9
9
9
9
9
9
9
9
9
9
9
9
9
9
9
9
9
9
9
9
9
9
9
9
9
9
9
9
9
9
9
9
9
9
9
9
9
9
9
9
9
9
9
9
9
9
9
9
9
9
9
9
9
9
9
9
9
9
9
9
9
9
9
9
9
9
9
9
9
9
9
9
9
9
9
9
9
9
9
9
9
9
9
9
9
9
9
9
9
9
9
POINT_DATA 183
SCALARS GLOBAL_ID int 1
LOOKUP_TABLE default
272 
273 
274 
275 
276 
447 
456 
504 
505 
506 
507 
508 
509 
510 
511 
512 
513 
514 
515 
516 
517 
518 
519 
520 
521 
522 
523 
1238 
1239 
1240 
1241 
1242 
1243 
1244 
1245 
1246 
1247 
1248 
1249 
1250 
1251 
1252 
1253 
1254 
1255 
1256 
1937 
1938 
1939 
1940 
1941 
1942 
1943 
1944 
6603 
6604 
6605 
6606 
6607 
6608 
6609 
6610 
6611 
6612 
6613 
6614 
6615 
6616 
6617 
6618 
6619 
6620 
6621 
6622 
6623 
6624 
6625 
6626 
6627 
6628 
6629 
6630 
6631 
6632 
6633 
6634 
6635 
6636 
6637 
6638 
6639 
6640 
6641 
6642 
6643 
6644 
6645 
6646 
6647 
6648 
6649 
6650 
6651 
6652 
6653 
6654 
6655 
6656 
6657 
6658 
6659 
6660 
6661 
6662 
6663 
6664 
6665 
6666 
6667 
6668 
6669 
6670 
6671 
6672 
6673 
6674 
6675 
6676 
6677 
6678 
6679 
6680 
6681 
6682 
6683 
6684 
6685 
6686 
6687 
6688 
6689 
6690 
6691 
6692 
6693 
6694 
6695 
6696 
6697 
6698 
6699 
6700 
6701 
6702 
6703 
6704 
6705 
6706 
6707 
6708 
6709 
6710 
6711 
6712 
6713 
6714 
6715 
6716 
6717 
6718 
6719 
6720 
6721 
6722 
6723 
6724 
6725 
6726 
6727 
6728 
6729 
6730 
6731 
CELL_DATA 155
SCALARS GLOBAL_ID int 1
LOOKUP_TABLE default
2200 
2199 
2198 
2197 
2196 
2195 
2194 
2193 
2192 
2191 
2190 
2189 
2188 
2187 
2186 
2185 
2184 
2183 
2182 
2181 
2180 
2179 
2178 
2177 
2176 
2175 
2174 
2173 
2172 
2171 
2170 
2169 
2168 
2167 
2166 
2165 
2164 
2163 
2162 
2161 
2160 
2159 
2158 
2157 
2156 
2155 
2154 
2153 
2152 
2151 
2150 
2149 
2148 
2147 
2146 
2145 
2144 
2143 
2142 
2141 
2140 
2139 
2138 
2137 
2136 
2135 
2134 
2133 
2132 
2131 
2130 
2129 
2128 
2127 
2126 
2125 
2124 
2123 
2122 
2121 
2120 
2119 
2118 
2117 
2116 
2115 
2114 
2113 
2112 
2111 
2110 
2109 
2108 
2107 
2106 
2105 
2104 
2103 
2102 
2101 
2100 
2099 
2098 
2097 
2096 
2095 
2094 
2093 
2092 
2091 
2090 
2089 
2088 
2087 
2086 
2085 
2084 
2083 
2082 
2081 
2080 
2079 
2078 
2077 
2076 
2075 
2074 
2073 
2072 
2071 
2070 
2069 
2068 
2067 
2066 
2065 
2064 
2063 
2062 
2061 
2060 
2059 
2058 
2057 
2056 
2055 
2054 
2053 
2052 
2051 
2050 
2049 
2048 
2047 
2046 
