# vtk DataFile Version 2.0
Mesquite Mesh original_mesh .
ASCII
DATASET UNSTRUCTURED_GRID
POINTS 36 float
3.41506 -1.83013 7.74519
-0.915064 6.83013 5.24519
2.54904 -0.0980762 7.24519
1.68301 1.63397 6.74519
0.816987 3.36603 6.24519
-0.0490381 5.09808 5.74519
-8.41506 1.83013 0.915064
-2.41506 5.83013 4.37917
-3.91506 4.83013 3.51314
-5.41506 3.83013 2.64711
-6.91506 2.83013 1.78109
-4.08494 -6.83013 3.41506
-7.54904 0.0980762 1.41506
-6.68301 -1.63397 1.91506
-5.81699 -3.36603 2.41506
-4.95096 -5.09808 2.91506
-2.58494 -5.83013 4.28109
-1.08494 -4.83013 5.14711
0.415064 -3.83013 6.01314
1.91506 -2.83013 6.87917
0.496224 -0.260088 6.06
-0.488259 2.53946 5.49161
-0.910301 3.21983 5.24794
-3.21558 3.12531 3.91698
-3.86327 2.40732 3.54304
-5.38184 2.03531 2.6663
-5.04531 0.219973 2.86059
-5.3174 -1.52223 2.7035
-4.04672 -2.9078 3.43713
-2.23042 -3.59643 4.48577
-0.265091 -2.00578 5.62045
0.811095 -1.12717 6.24179
-1.74453 -0.547274 4.7663
-1.78656 1.75373 4.74203
-3.23595 -0.425102 3.90522
-2.31157 -1.47681 4.43892
CELLS 50 200
3 0 2 19 
3 2 3 20 
3 20 3 21 
3 21 3 4 
3 4 5 22 
3 22 5 7 
3 5 1 7 
3 7 8 23 
3 23 8 24 
3 24 8 9 
3 9 10 25 
3 25 10 12 
3 10 6 12 
3 12 13 26 
3 26 13 27 
3 27 13 14 
3 14 15 28 
3 28 15 16 
3 15 11 16 
3 16 17 29 
3 29 17 30 
3 30 17 18 
3 18 19 31 
3 31 19 2 
3 2 20 31 
3 20 21 32 
3 32 21 33 
3 33 21 22 
3 21 4 22 
3 22 7 23 
3 23 24 33 
3 33 22 23 
3 24 9 25 
3 25 12 26 
3 26 27 34 
3 34 27 35 
3 35 27 28 
3 27 14 28 
3 28 16 29 
3 29 30 35 
3 35 28 29 
3 30 18 31 
3 31 20 32 
3 32 33 34 
3 33 24 34 
3 24 25 34 
3 25 26 34 
3 34 35 32 
3 35 30 32 
3 30 31 32 
CELL_TYPES 50
5
5
5
5
5
5
5
5
5
5
5
5
5
5
5
5
5
5
5
5
5
5
5
5
5
5
5
5
5
5
5
5
5
5
5
5
5
5
5
5
5
5
5
5
5
5
5
5
5
5
POINT_DATA 36
SCALARS fixed float
LOOKUP_TABLE default
1
1
1
1
1
1
1
1
1
1
1
1
1
1
1
1
1
1
1
1
0
0
0
0
0
0
0
0
0
0
0
0
0
0
0
0
