# vtk DataFile Version 3.0
MOAB 4.99 (Alpha)
ASCII
DATASET UNSTRUCTURED_GRID
POINTS 247 double
-5.773502692 -5.773502692 5.773502692
-4.907729662 -6.160932952 6.160932952
-5.014692106 -5.939792814 6.290606044
-5.873736727 -5.567623716 5.873736727
-3.989075935 -6.484106461 6.484106461
-4.092220164 -6.254737028 6.643191916
-3.029798065 -6.738706244 6.738706244
-3.11840448 -6.505955584 6.924456328
-2.037369971 -6.922756806 6.922756806
-2.102294637 -6.689369309 7.129705149
-1.024220268 -7.03388132 7.03388132
-1.058512206 -6.800877553 7.254489397
-0.0001287015694 -7.071067811 7.071067811
-0.0001444595121 -6.838330471 7.296385157
1.02414601 -7.033886726 7.033886726
1.058388909 -6.800902343 7.254484147
2.037767681 -6.922698277 6.922698277
2.102597235 -6.689350056 7.12963398
3.029101711 -6.738862768 6.738862768
3.11771921 -6.506169029 6.924564354
3.989915058 -6.483848311 6.483848311
4.092920596 -6.254560066 6.642927019
4.907157184 -6.161160951 6.161160951
5.014120719 -5.940114922 6.290757358
5.773502692 -5.773502692 5.773502692
5.873681104 -5.567741075 5.873681104
-5.139996313 -5.663600245 6.442365262
-5.992849238 -5.30768462 5.992849238
-4.212322399 -5.96944315 6.828036943
-3.221414202 -6.216678793 7.139705549
-2.177785996 -6.39913726 7.369415884
-1.098426966 -6.510909581 7.510094183
-0.0001989140815 -6.548613347 7.557490535
1.098176871 -6.510985599 7.510064852
2.177914944 -6.399220327 7.369305646
3.220664332 -6.217044201 7.139725672
4.212806629 -5.969470663 6.827714135
5.139351848 -5.664171158 6.442377486
5.992664755 -5.308101193 5.992664755
-5.285475763 -5.316009522 6.618443073
-6.13245287 -4.978558404 6.13245287
-4.351339925 -5.610763872 7.04167378
-3.340692115 -5.852479512 7.388386816
-2.265319984 -6.032966793 7.646674901
-1.144759382 -6.144451715 7.806102682
-0.0002238292452 -6.182231778 7.860026093
1.144441222 -6.144565523 7.80605975
2.265333264 -6.033124421 7.646546601
3.339938985 -5.852955742 7.388350064
4.351666733 -5.610936603 7.041334184
5.28481983 -5.316755764 6.618367435
6.132199929 -4.97918148 6.132199929
-5.451636981 -4.875867243 6.819499458
-6.292714427 -4.561084331 6.292714427
-4.510108503 -5.155630551 7.285492084
-3.477244439 -5.388599478 7.672793936
-2.365791437 -5.56477476 7.964691629
-1.197982063 -5.674560455 8.146422689
-6.570739165e-05 -5.711902226 8.2081772
1.197960717 -5.674556291 8.146428728
2.366050674 -5.564696597 7.964669233
3.47684982 -5.388726984 7.672883214
4.510631143 -5.155339758 7.285374299
5.451319742 -4.876042117 6.819628021
6.292734064 -4.561030147 6.292734064
-5.636915865 -4.314310342 7.043571949
-6.47165724 -4.029305787 6.47165724
-4.687637971 -4.572268447 7.557804675
-3.630662768 -4.790602278 7.991771873
-2.479216111 -4.957993172 8.322967691
-1.25828985 -5.063307758 8.531097304
8.327847401e-05 -5.099267978 8.602177985
1.258545711 -5.063158782 8.531147979
2.479698283 -4.957626714 8.32304234
3.630605385 -4.790308807 7.991973853
4.68832772 -4.571421215 7.557889339
5.636910552 -4.313811821 7.043881529
6.47191977 -4.028462359 6.47191977
-5.834810415 -3.594055212 7.282702421
-6.662461405 -3.350106872 6.662461405
-4.878257935 -3.819036611 7.849685273
-3.79654124 -4.012697238 8.335738449
-2.602712456 -4.163392522 8.711604363
-1.324402416 -4.259232728 8.950133787
-8.650770265e-05 -4.292207254 9.031996285
1.32429909 -4.259290605 8.950121533
2.602785029 -4.163433078 8.711563298
3.796203471 -4.013011107 8.335741183
4.878503765 -3.818971186 7.849564325
5.83452702 -3.594519208 7.282700469
6.662391962 -3.350383066 6.662391962
-6.029252951 -2.670722047 7.51766936
-6.849277486 -2.484913649 6.849277486
-5.066780435 -2.845227217 8.138330179
-3.961844821 -2.997847617 8.678519187
-2.72662441 -3.118379336 9.101715753
-1.390981147 -3.195823837 9.37293345
-5.471308485e-05 -3.222623249 9.466504075
1.390919341 -3.195872751 9.372925944
2.726681387 -3.118398972 9.101691956
3.961620695 -2.99813915 8.67852079
5.066959804 -2.845118222 8.13825661
6.029066507 -2.671145072 7.517668591
6.84923729 -2.485135224 6.84923729
-6.189652768 -1.490421846 7.711474653
-7.002876062 -1.385443508 7.002876062
-5.223261994 -1.590618499 8.377796067
-4.100031413 -1.679266767 8.964920833
-2.830924315 -1.750243019 9.429873642
-1.447280084 -1.796194871 9.730316765
-3.66190098e-07 -1.812155668 9.834433987
1.44730333 -1.796153186 9.730321002
2.831005032 -1.750081381 9.429879409
4.099966042 -1.679302546 8.964944028
5.223407962 -1.590165852 8.377790987
6.189604121 -1.490444641 7.711509295
7.002900359 -1.385197862 7.002900359
-6.260872353 0.0002318286551 7.797530207
-7.071067811 0.0001287015694 7.071067811
-5.292979276 -4.423281236e-05 8.48436034
-4.161782843 0.0001600974953 9.092830337
-2.877757186 1.404712633e-05 9.576978311
-1.472636064 2.643930321e-05 9.890972805
2.476988936e-06 -2.755381776e-06 10
1.472641097 -3.219281597e-05 9.890972055
2.877757517 -1.956767225e-05 9.576978212
4.161781847 -0.0001649887303 9.092830793
5.292989864 4.298298104e-05 8.484353735
6.260874232 -0.0002357294334 7.797528698
7.071067811 -0.0001333132868 7.071067811
-6.189602215 1.490443042 7.711511133
-7.002900635 1.385195076 7.002900635
-5.223396127 1.590167871 8.377797983
-4.099967127 1.679300278 8.964943956
-2.831005044 1.750078862 9.429879873
-1.447298939 1.796150798 9.730322096
5.155218517e-06 1.812153642 9.83443436
1.447285438 1.796192683 9.730316372
2.830924745 1.750241282 9.429873835
4.100030276 1.679265809 8.964921532
5.223271192 1.590620185 8.377790012
6.189654438 1.490421653 7.71147335
7.00287613 1.385442821 7.00287613
-6.029063923 2.671146989 7.517669983
-6.8492372 2.485135723 6.8492372
-5.066946133 2.845124303 8.138262996
-3.961621328 2.998140311 8.6785201
-2.726681308 3.118399986 9.101691632
-1.390915359 3.195873968 9.37292612
5.935776534e-05 3.222624707 9.466503578
1.390986639 3.195825002 9.372932237
2.726624644 3.118380922 9.101715139
3.961843139 2.997849914 8.678519161
5.066787889 2.845231166 8.138324158
6.029253927 2.670724623 7.517667662
6.849277098 2.484915788 6.849277098
-5.834524047 3.594520662 7.282702133
-6.662391826 3.350383608 6.662391826
-4.87848849 3.818976472 7.849571247
-3.796203627 4.013010299 8.335741501
-2.602784527 4.163431454 8.711564224
-1.324294808 4.259288485 8.950123176
9.21087069e-05 4.292204558 9.031997566
1.324409532 4.259228955 8.95013453
2.602714359 4.163388498 8.711605718
3.796541146 4.01269329 8.335740392
4.878266008 3.819033057 7.849681985
5.834813041 3.594050232 7.282702775
6.66246285 3.350101126 6.66246285
-5.636907393 4.313812263 7.043883787
-6.471919812 4.028462224 6.471919812
-4.688311047 4.571425276 7.557897226
-3.630605146 4.790305974 7.99197566
-2.479697343 4.957622624 8.323045056
-1.258541011 5.063153714 8.53115168
-7.652204235e-05 5.099261748 8.602181678
1.258298871 5.063299852 8.531100665
2.479220083 4.957984446 8.322971706
3.630664773 4.790593048 7.991776496
4.687647307 4.572258553 7.55780487
5.636920798 4.31429881 7.043575065
6.471661195 4.029293083 6.471661195
-5.451316474 4.876042775 6.819630163
-6.292734249 4.561029637 6.292734249
-4.510613412 5.155344747 7.285381746
-3.476849824 5.388725401 7.672884324
-2.366050403 5.564694387 7.964670858
-1.19795726 5.67455375 8.146431007
7.131795259e-05 5.711899137 8.20817935
1.197990061 5.674556315 8.146424396
2.365794026 5.564770432 7.964693884
3.477244693 5.388595242 7.672796795
4.510115026 5.155625853 7.285491371
5.45164001 4.875861634 6.819501047
6.292716697 4.56107807 6.292716697
-5.284816364 5.316756885 6.618369303
-6.132200134 4.979180976 6.132200134
-4.351647926 5.610942595 7.041341032
-3.339939212 5.852955386 7.388350243
-2.265333673 6.03312391 7.646546883
-1.144439048 6.144565173 7.806060344
0.0002281990499 6.182231375 7.86002641
1.144766198 6.144450784 7.806102415
2.265320977 6.032966226 7.646675055
3.340690356 5.85247959 7.388387551
4.351343332 5.610763785 7.041671744
5.285476517 5.316009199 6.618442732
6.132453044 4.978557973 6.132453044
-5.139348077 5.664172564 6.442379258
-5.992664906 5.308100852 5.992664906
-4.212786592 5.969477119 6.827720854
-3.220664467 6.217044198 7.139725613
-2.17791555 6.399220252 7.369305532
-1.098175281 6.510985773 7.510064934
0.0002029426122 6.548613548 7.557490361
1.098433696 6.510909345 7.510093403
2.177786671 6.399137498 7.369415478
3.221411855 6.216679795 7.139705735
4.21232422 5.969443937 6.828035131
5.139996346 5.663601022 6.442364552
5.99284887 5.307685451 5.99284887
-5.014116591 5.940116581 6.290759082
-5.873681159 5.567740959 5.873681159
-4.092899272 6.254566852 6.642933768
-3.11771913 6.50616916 6.924564267
-2.102597854 6.689350092 7.129633764
-1.058387644 6.800902603 7.254484088
0.0001484643663 6.838330726 7.296384917
1.058519224 6.800877342 7.254488572
2.102295428 6.689369552 7.129704688
3.118402034 6.505956579 6.924456495
4.092220934 6.254737673 6.643190835
5.014691963 5.939793507 6.290605505
5.873736362 5.567624484 5.873736362
-4.907152731 6.161162723 6.161162723
-5.773502692 5.773502692 5.773502692
-3.989892477 6.483855258 6.483855258
-3.029101392 6.73886284 6.73886284
-2.037768246 6.922698194 6.922698194
-1.024144946 7.033886803 7.033886803
0.0001328474144 7.071067811 7.071067811
1.024227777 7.033880773 7.033880773
2.037371129 6.922756636 6.922756636
3.029795816 6.73870675 6.73870675
3.989075989 6.484106444 6.484106444
4.907729691 6.160932941 6.160932941
5.773502692 5.773502692 5.773502692
CELLS 216 1080
4 0 1 2 3
4 1 4 5 2
4 4 6 7 5
4 6 8 9 7
4 8 10 11 9
4 10 12 13 11
4 12 14 15 13
4 14 16 17 15
4 16 18 19 17
4 18 20 21 19
4 20 22 23 21
4 22 24 25 23
4 3 2 26 27
4 2 5 28 26
4 5 7 29 28
4 7 9 30 29
4 9 11 31 30
4 11 13 32 31
4 13 15 33 32
4 15 17 34 33
4 17 19 35 34
4 19 21 36 35
4 21 23 37 36
4 23 25 38 37
4 27 26 39 40
4 26 28 41 39
4 28 29 42 41
4 29 30 43 42
4 30 31 44 43
4 31 32 45 44
4 32 33 46 45
4 33 34 47 46
4 34 35 48 47
4 35 36 49 48
4 36 37 50 49
4 37 38 51 50
4 40 39 52 53
4 39 41 54 52
4 41 42 55 54
4 42 43 56 55
4 43 44 57 56
4 44 45 58 57
4 45 46 59 58
4 46 47 60 59
4 47 48 61 60
4 48 49 62 61
4 49 50 63 62
4 50 51 64 63
4 53 52 65 66
4 52 54 67 65
4 54 55 68 67
4 55 56 69 68
4 56 57 70 69
4 57 58 71 70
4 58 59 72 71
4 59 60 73 72
4 60 61 74 73
4 61 62 75 74
4 62 63 76 75
4 63 64 77 76
4 66 65 78 79
4 65 67 80 78
4 67 68 81 80
4 68 69 82 81
4 69 70 83 82
4 70 71 84 83
4 71 72 85 84
4 72 73 86 85
4 73 74 87 86
4 74 75 88 87
4 75 76 89 88
4 76 77 90 89
4 79 78 91 92
4 78 80 93 91
4 80 81 94 93
4 81 82 95 94
4 82 83 96 95
4 83 84 97 96
4 84 85 98 97
4 85 86 99 98
4 86 87 100 99
4 87 88 101 100
4 88 89 102 101
4 89 90 103 102
4 92 91 104 105
4 91 93 106 104
4 93 94 107 106
4 94 95 108 107
4 95 96 109 108
4 96 97 110 109
4 97 98 111 110
4 98 99 112 111
4 99 100 113 112
4 100 101 114 113
4 101 102 115 114
4 102 103 116 115
4 105 104 117 118
4 104 106 119 117
4 106 107 120 119
4 107 108 121 120
4 108 109 122 121
4 109 110 123 122
4 110 111 124 123
4 111 112 125 124
4 112 113 126 125
4 113 114 127 126
4 114 115 128 127
4 115 116 129 128
4 118 117 130 131
4 117 119 132 130
4 119 120 133 132
4 120 121 134 133
4 121 122 135 134
4 122 123 136 135
4 123 124 137 136
4 124 125 138 137
4 125 126 139 138
4 126 127 140 139
4 127 128 141 140
4 128 129 142 141
4 131 130 143 144
4 130 132 145 143
4 132 133 146 145
4 133 134 147 146
4 134 135 148 147
4 135 136 149 148
4 136 137 150 149
4 137 138 151 150
4 138 139 152 151
4 139 140 153 152
4 140 141 154 153
4 141 142 155 154
4 144 143 156 157
4 143 145 158 156
4 145 146 159 158
4 146 147 160 159
4 147 148 161 160
4 148 149 162 161
4 149 150 163 162
4 150 151 164 163
4 151 152 165 164
4 152 153 166 165
4 153 154 167 166
4 154 155 168 167
4 157 156 169 170
4 156 158 171 169
4 158 159 172 171
4 159 160 173 172
4 160 161 174 173
4 161 162 175 174
4 162 163 176 175
4 163 164 177 176
4 164 165 178 177
4 165 166 179 178
4 166 167 180 179
4 167 168 181 180
4 170 169 182 183
4 169 171 184 182
4 171 172 185 184
4 172 173 186 185
4 173 174 187 186
4 174 175 188 187
4 175 176 189 188
4 176 177 190 189
4 177 178 191 190
4 178 179 192 191
4 179 180 193 192
4 180 181 194 193
4 183 182 195 196
4 182 184 197 195
4 184 185 198 197
4 185 186 199 198
4 186 187 200 199
4 187 188 201 200
4 188 189 202 201
4 189 190 203 202
4 190 191 204 203
4 191 192 205 204
4 192 193 206 205
4 193 194 207 206
4 196 195 208 209
4 195 197 210 208
4 197 198 211 210
4 198 199 212 211
4 199 200 213 212
4 200 201 214 213
4 201 202 215 214
4 202 203 216 215
4 203 204 217 216
4 204 205 218 217
4 205 206 219 218
4 206 207 220 219
4 209 208 221 222
4 208 210 223 221
4 210 211 224 223
4 211 212 225 224
4 212 213 226 225
4 213 214 227 226
4 214 215 228 227
4 215 216 229 228
4 216 217 230 229
4 217 218 231 230
4 218 219 232 231
4 219 220 233 232
4 222 221 234 235
4 221 223 236 234
4 223 224 237 236
4 224 225 238 237
4 225 226 239 238
4 226 227 240 239
4 227 228 241 240
4 228 229 242 241
4 229 230 243 242
4 230 231 244 243
4 231 232 245 244
4 232 233 246 245
CELL_TYPES 216
9
9
9
9
9
9
9
9
9
9
9
9
9
9
9
9
9
9
9
9
9
9
9
9
9
9
9
9
9
9
9
9
9
9
9
9
9
9
9
9
9
9
9
9
9
9
9
9
9
9
9
9
9
9
9
9
9
9
9
9
9
9
9
9
9
9
9
9
9
9
9
9
9
9
9
9
9
9
9
9
9
9
9
9
9
9
9
9
9
9
9
9
9
9
9
9
9
9
9
9
9
9
9
9
9
9
9
9
9
9
9
9
9
9
9
9
9
9
9
9
9
9
9
9
9
9
9
9
9
9
9
9
9
9
9
9
9
9
9
9
9
9
9
9
9
9
9
9
9
9
9
9
9
9
9
9
9
9
9
9
9
9
9
9
9
9
9
9
9
9
9
9
9
9
9
9
9
9
9
9
9
9
9
9
9
9
9
9
9
9
9
9
9
9
9
9
9
9
9
9
9
9
9
9
9
9
9
9
9
9
9
9
9
9
9
9
CELL_DATA 216
SCALARS GLOBAL_ID int 1
LOOKUP_TABLE default
1 
2 
3 
4 
5 
6 
7 
8 
9 
10 
11 
12 
13 
14 
15 
16 
17 
18 
19 
20 
21 
22 
23 
24 
25 
26 
27 
28 
29 
30 
31 
32 
33 
34 
35 
36 
37 
38 
39 
40 
41 
42 
43 
44 
45 
46 
47 
48 
49 
50 
51 
52 
53 
54 
55 
56 
57 
58 
59 
60 
61 
62 
63 
64 
65 
66 
67 
68 
69 
70 
71 
72 
73 
74 
75 
76 
77 
78 
79 
80 
81 
82 
83 
84 
85 
86 
87 
88 
89 
90 
91 
92 
93 
94 
95 
96 
97 
98 
99 
100 
101 
102 
103 
104 
105 
106 
107 
108 
109 
110 
111 
112 
113 
114 
115 
116 
117 
118 
119 
120 
121 
122 
123 
124 
125 
126 
127 
128 
129 
130 
131 
132 
133 
134 
135 
136 
137 
138 
139 
140 
141 
142 
143 
144 
145 
146 
147 
148 
149 
150 
151 
152 
153 
154 
155 
156 
157 
158 
159 
160 
161 
162 
163 
164 
165 
166 
167 
168 
169 
170 
171 
172 
173 
174 
175 
176 
177 
178 
179 
180 
181 
182 
183 
184 
185 
186 
187 
188 
189 
190 
191 
192 
193 
194 
195 
196 
197 
198 
199 
200 
201 
202 
203 
204 
205 
206 
207 
208 
209 
210 
211 
212 
213 
214 
215 
216 
