# vtk DataFile Version 2.0
Mesquite Mesh original_mesh .
ASCII
DATASET UNSTRUCTURED_GRID
POINTS 27 float
5 -5 5
5 5 5
5 0 5
-5 5 5
0 5 5
-5 -5 5
-5 0 5
0 -5 5
0 0 5
5 5 -5
5 -5 -5
5 0 -5
-5 -5 -5
0 -5 -5
-5 5 -5
-5 0 -5
0 5 -5
0 0 -5
-5 -5 0
5 -5 0
0 -5 0
-5 5 0
-5 0 0
5 5 0
0 5 0
5 0 0
-3.24084 2.77275 -3.30359
CELLS 49 245
4 20 22 6 8 
4 18 6 20 22 
4 15 17 22 12 
4 26 24 21 22 
4 18 17 12 22 
4 18 17 22 20 
4 21 4 8 24 
4 14 24 21 26 
4 20 25 8 19 
4 0 19 7 8 
4 20 13 11 10 
4 11 20 25 17 
4 20 17 22 25 
4 2 25 0 8 
4 8 21 22 3 
4 18 13 12 17 
4 6 18 20 5 
4 8 2 25 24 
4 19 20 11 10 
4 24 23 1 2 
4 25 17 22 24 
4 26 24 16 14 
4 19 25 8 0 
4 2 24 4 1 
4 25 8 22 20 
4 3 4 8 21 
4 23 17 16 9 
4 24 25 17 23 
4 24 8 22 25 
4 2 4 24 8 
4 6 8 22 3 
4 17 9 23 25 
4 24 2 25 23 
4 20 17 11 13 
4 9 11 25 17 
4 7 20 5 6 
4 17 24 16 26 
4 16 26 15 17 
4 24 23 17 16 
4 24 21 22 8 
4 21 15 26 22 
4 14 26 15 16 
4 8 20 7 6 
4 20 17 13 18 
4 14 15 26 21 
4 24 17 22 26 
4 19 20 25 11 
4 26 15 17 22 
4 8 19 7 20 
CELL_TYPES 49
10
10
10
10
10
10
10
10
10
10
10
10
10
10
10
10
10
10
10
10
10
10
10
10
10
10
10
10
10
10
10
10
10
10
10
10
10
10
10
10
10
10
10
10
10
10
10
10
10
POINT_DATA 27
SCALARS fixed float
LOOKUP_TABLE default
1
1
1
1
1
1
1
1
1
1
1
1
1
1
1
1
1
1
1
1
1
1
1
1
1
1
0
