# vtk DataFile Version 2.0
Mesquite Mesh original_mesh .
ASCII
DATASET UNSTRUCTURED_GRID
POINTS 7 float
-0.5 -0.25 0.5
1 0 0
0.5 0.8660254 0
0.5 0.2886751 0.81649658
-1 0 0
-0.5 -0.8660254 0
-0.5 -0.2886751 -0.81649658
CELLS 2 10
4 0 1 2 3 
4 0 4 6 5
CELL_TYPES 2
10
10
POINT_DATA 7
SCALARS fixed float
LOOKUP_TABLE default
0
1
1
1
1
1
1
