# vtk DataFile Version 3.0
MOAB 3.99 (Alpha)
ASCII
DATASET UNSTRUCTURED_GRID
POINTS 608 double
-0.6 0 0
-0.6945463536 0.1501979826 0
-0.5125841285 0.1624985418 0
-0.6472731768 0.07509899129 0
-0.603565241 0.1563482622 0
-0.5562920642 0.08124927088 0
-0.04085781116 0.8846924181 0
-0.3033108676 0.8610379203 0
-0.2571335917 1.090652615 0
-0.1720843394 0.8728651692 0
-0.2802222297 0.9758452677 0
-0.1489957014 0.9876725166 0
-0.6828489336 1.025067918 0
-0.790725365 1.089970947 0
-0.6699387242 1.189586728 0
-0.7367871493 1.057519432 0
-0.7303320446 1.139778837 0
-0.6763938289 1.107327323 0
-0.1368515485 1.923875639 0
-0.2439537489 2.030771588 0
-0.1240430198 2.092884865 0
-0.1904026487 1.977323613 0
-0.1839983844 2.061828226 0
-0.1304472842 2.008380252 0
0.5 1 0
0.25 1 0
0.4094703139 1.230336181 0
0.375 1 0
0.3297351569 1.115168091 0
0.4547351569 1.115168091 0
0.922572825 1.208037864 0
0.8009708002 1.19743549 0
0.8836934802 1.311993812 0
0.8617718126 1.202736677 0
0.8423321402 1.254714651 0
0.9031540995 1.260023672 0
0 0 0
-0.1620495886 0.2028814072 0
-0.0212126045 0.4423100446 0
-0.08102479431 0.1014407036 0
-0.09163109656 0.3225957259 0
-0.01069606712 0.2211507048 0
-0.2390678708 0.6352351252 0
-0.265288153 0.3878015996 0
-0.1301402376 0.5387725849 0
-0.1432503787 0.4150558221 0
-0.2521780119 0.5115183624 0
-0.3291298926 0.1822419391 0
-0.4453275444 0.337664176 0
-0.2972090228 0.2850217693 0
-0.3872287185 0.2599530576 0
-0.3553078487 0.3627328878 0
-0.8766331544 0.65440837 0
-0.8022177202 0.5336865364 0
-0.8974956876 0.5453969006 0
-0.8394254373 0.5940474532 0
-0.8498567039 0.5395417185 0
-0.8870875348 0.5999070585 0
-0.9796280632 0.109103558 0
-0.8 0 0
-1 0 0
-0.8898140316 0.054551779 0
-0.9 0 0
-0.9898160184 0.05455214996 0
-0.8459753752 0.1520633581 0
-0.9128017192 0.130583458 0
-0.8229876876 0.07603167904 0
-0.7078231373 0.4276919362 0
-0.6501645036 0.577842893 0
-0.5570959271 0.4623994304 0
-0.6789938204 0.5027674146 0
-0.6036302154 0.5201211617 0
-0.6324595322 0.4450456833 0
-0.9592242237 0.2182014173 0
-0.7986969664 0.2831219661 0
-0.9025997995 0.1851323877 0
-0.8789605951 0.2506616917 0
-0.8223361708 0.2175926621 0
-0.4 0 0
-0.4562920642 0.08124927088 0
-0.4208570105 0.1723702404 0
-0.3645649463 0.09112096956 0
-0.6174320512 0.304226308 0
-0.4789558364 0.2500813589 0
-0.5650080899 0.2333624249 0
-0.5313797978 0.320945242 0
-0.9181915742 0.4363541403 0
-0.8602046472 0.4850203383 0
-0.9078621881 0.4908790423 0
-0.855566814 0.7633790569 0
-0.7461786019 0.6896038993 0
-0.8008727079 0.7264914781 0
-0.8114058782 0.6720061346 0
-0.8661279348 0.7088991164 0
-0.8342561104 0.8723032221 0
-0.72393501 0.8587193364 0
-0.7790955602 0.8655112792 0
-0.789750912 0.8110491966 0
-0.8449446046 0.8178476231 0
-0.8126579475 0.9811709537 0
-0.7682964788 0.9199451451 0
-0.8234958027 0.9267447794 0
-0.7477534406 1.003119436 0
-0.7033919718 0.9418936274 0
-0.7684060593 1.19869295 0
-0.7796175047 1.144342579 0
-0.7191723917 1.194139839 0
-0.7456421661 1.307322812 0
-0.6497506661 1.324626047 0
-0.7077904451 1.24845477 0
-0.6976964161 1.31597443 0
-0.6598446951 1.257106388 0
-0.4221511895 0.9975414766 0
-0.5435371106 1.097204259 0
-0.4130306933 1.155301049 0
-0.4828441501 1.047372868 0
-0.4782839019 1.126252654 0
-0.4175909414 1.076421263 0
0.3306769294 2.353706646 0
0.4677377822 2.340731747 0
0.3849464441 2.22982024 0
0.3992073558 2.347219197 0
0.4263421131 2.285275993 0
0.3578116867 2.291763443 0
-0.7223684603 1.415843908 0
-0.5988268001 1.427804738 0
-0.6605976302 1.421824323 0
-0.6242887331 1.376215393 0
-0.6860595632 1.370234978 0
-0.561542451 1.561096205 0
-0.6739810141 1.632482976 0
-0.5473056282 1.688868538 0
-0.6177617325 1.59678959 0
-0.6106433211 1.660675757 0
-0.5544240396 1.624982371 0
-0.2743690017 1.761364433 0
-0.06050212931 1.769990201 0
-0.2604443476 1.543778011 0
-0.1674355655 1.765677317 0
-0.1604732385 1.656884106 0
-0.2674066747 1.652571222 0
-0.5491805141 1.787802435 0
-0.4391040255 1.778591282 0
-0.4941422698 1.783196859 0
-0.4932048269 1.73372991 0
-0.5482430712 1.738335486 0
-0.6224883254 1.848401402 0
-0.5003815297 1.882241963 0
-0.5614349275 1.865321683 0
-0.5247810219 1.835022199 0
-0.5858344198 1.818101919 0
-0.4627106709 2.003239605 0
-0.5952596131 1.955997298 0
-0.5668160284 2.063279148 0
-0.528985142 1.979618451 0
-0.5812023926 2.00968184 0
-0.5147633496 2.033259376 0
-0.5369342204 2.170168615 0
-0.4365090375 2.145151408 0
-0.4867216289 2.157660011 0
-0.5016625329 2.104215278 0
-0.5520711301 2.116778652 0
-0.505326057 2.276560942 0
-0.3741420945 2.283455179 0
-0.4397340757 2.280008061 0
-0.405325566 2.214303294 0
-0.4709175472 2.210856175 0
-0.4716110414 2.38230285 0
-0.422876568 2.332879015 0
-0.4887605512 2.329524932 0
-0.2676852248 2.165130127 0
-0.3209136596 2.224292653 0
-0.3520971311 2.155140767 0
-0.335197475 2.412912352 0
-0.4352825357 2.487124044 0
-0.4034042582 2.397607601 0
-0.4538153514 2.434841057 0
-0.3852400054 2.450018198 0
-0.3010766097 2.556166725 0
-0.3955430978 2.590799114 0
-0.3681795727 2.521645385 0
-0.4158948441 2.539146086 0
-0.3483098538 2.573482919 0
-0.3513068623 2.692578182 0
-0.2322759073 2.683459637 0
-0.2917913848 2.68801891 0
-0.2666762585 2.619813181 0
-0.326191736 2.624372453 0
-0.3007093427 2.791332076 0
-0.266492625 2.737395857 0
-0.3269631557 2.742442717 0
-0.1598566445 2.804588487 0
-0.240453315 2.884447292 0
-0.2302829936 2.797960281 0
-0.272092142 2.838860564 0
-0.2001549797 2.84451789 0
-0.1641877025 2.964652762 0
-0.04755940158 2.890062389 0
-0.105873552 2.927357576 0
-0.103708023 2.847325438 0
-0.1620221735 2.884620625 0
-0.2049297288 2.926989134 0
-0.1960662759 2.744024062 0
0.5145213006 1.947212914 0
0.6432526122 1.932986021 0
0.5777352609 1.849751003 0
0.5788869564 1.940099467 0
0.6104939365 1.891368512 0
0.5461282807 1.898481958 0
0.1273830459 2.910143281 0
0.07315782048 2.845204793 0
0.04197477895 2.980500143 0
0.1002704332 2.877674037 0
0.05756629971 2.912852468 0
0.08704774449 2.948141686 0
-0.3740825216 2.641973829 0
-0.3181370424 2.484539538 0
0.2804038272 2.495023394 0
0.3175005796 2.637780709 0
0.3702936435 2.54015744 0
0.2989522034 2.566402052 0
0.3443178472 2.589196357 0
0.3253487354 2.517590417 0
0.4201479712 2.440998502 0
0.3502758992 2.468010948 0
0.3754124503 2.397352574 0
0.3055403783 2.42436502 0
0.4441928305 2.390983699 0
0.5135356747 2.239632411 0
0.4908367927 2.290272673 0
0.4492410594 2.234726325 0
0.557886981 2.137891866 0
0.4610067498 2.094791205 0
0.5094468654 2.116341536 0
0.4872712123 2.167211808 0
0.5358740025 2.188833031 0
0.2966280027 2.110959506 0
0.3788173762 2.102875356 0
0.3407872234 2.170389873 0
0.4229765969 2.162305723 0
0.6010575499 2.035640997 0
0.5310321498 2.065216101 0
0.5577894252 1.991426955 0
0.4877640252 2.021002059 0
0.6846408337 1.830002341 0
0.6640383645 1.881531005 0
0.6311880473 1.839876672 0
0.6010166908 1.73379563 0
0.7253604385 1.72675328 0
0.6762600776 1.579725048 0
0.6631885647 1.730274455 0
0.7008102581 1.653239164 0
0.6386383842 1.656760339 0
0.8446104746 1.415874351 0
0.7502550085 1.396689903 0
0.8052496493 1.519649397 0
0.7974327415 1.406282127 0
0.7777523289 1.45816965 0
0.8249697044 1.467776908 0
0.1547926953 1.43246119 0
0.2028268474 1.216325034 0
0.2821315046 1.331398686 0
0.713257543 1.488207475 0
0.7407548635 1.549687223 0
0.8169742443 1.354341857 0
0.8641819342 1.363945351 0
0.4150310658 1.45219046 0
0.5353837183 1.322281098 0
0.4122506899 1.341263321 0
0.4752073921 1.387235779 0
0.4724270161 1.276308639 0
0.8779041588 1.07534921 0
0.9613194809 1.104030874 0
0.8394374795 1.13639235 0
0.8811451405 1.150733182 0
0.9196118198 1.089690042 0
0.9419585465 1.156038986 0
-0.2 0 0
-0.1810247943 0.1014407036 0
-0.1 0 0
-0.2645649463 0.09112096956 0
-0.2455897406 0.1925616732 0
0.765529603 1.623287829 0
0.7455071904 1.675044688 0
0.7208948403 1.601506438 0
0.75 1 0
0.6081351673 1.176175777 0
0.6790675837 1.088087888 0
0.7045529837 1.186805633 0
0.7754854001 1.098717745 0
1 1 0
0.9389520794 1.037674605 0
0.9806638429 1.052016962 0
0.875 1 0
0.8139520794 1.037674605 0
-0.139962841 0.7599637716 0
-0.03134942519 0.6634872103 0
-0.774198161 0.6116452178 0
-0.05641200777 1.327229383 0
-0.3232978421 1.310128135 0
-0.1584281777 1.435503697 0
-0.1898549249 1.318678759 0
-0.2918710949 1.426953073 0
-0.04939252336 1.105933878 0
-0.1567727997 1.208940999 0
-0.0609169512 1.548580103 0
-0.6985101002 1.524238438 0
-0.6300262756 1.542667322 0
-0.6863353228 1.578381045 0
0.04882727751 1.862356719 0
-0.09867683893 1.84693292 0
-0.04401213551 1.893116179 0
-0.05916659004 1.818046979 0
-0.4496098542 2.074195506 0
0.6567739668 1.307588572 0
0.5891251398 1.445360595 0
0.7035144876 1.352139237 0
0.6229495533 1.376474584 0
0.6696900741 1.421025249 0
0.3049387614 1.670303515 0
0.1045822413 1.648079571 0
0.1768830194 1.766330117 0
0.2298657283 1.551382353 0
-0.7261911119 0.5557647147 0
-0.6981715528 0.6337233961 0
-0.3 0 0
-0.5 0 0
-0.9387564209 0.327286746 0
-0.9490003666 0.2727459662 0
-0.8687266936 0.3052043561 0
-0.7472731768 0.07509899129 0
-0.7 0 0
-0.7080645088 0.2936741371 0
-0.6559892024 0.2272121453 0
-0.74662166 0.2166599744 0
-0.7702608644 0.1511306703 0
-0.9694321259 0.1636536065 0
-0.8313408486 0.4016769059 0
-0.8747662114 0.4190155231 0
-0.8850486348 0.3644818259 0
-0.9284882168 0.381823124 0
-0.8167792844 0.4676817211 0
-0.5806266051 0.7454115597 0
-0.6634026035 0.7175077295 0
-0.6153955543 0.6616272264 0
-0.7532600518 0.3554069511 0
-0.6626275943 0.3659591221 0
-0.7550204287 0.4806892363 0
-0.735056806 0.7741616178 0
-0.8017366038 1.03558001 0
-0.5664065126 0.9296117537 0
-0.6246277231 0.9773398361 0
-0.6451707613 0.8941655451 0
-0.7570835779 1.253020341 0
-0.5735165588 0.8375116567 0
-0.6522808075 0.802065448 0
-0.4464851839 1.45938626 0
-0.5801846255 1.494450471 0
-0.5040138174 1.510241232 0
-0.522655992 1.443595499 0
-0.6131930221 1.061136088 0
-0.5549718116 1.013408006 0
-0.7340734785 1.361597977 0
-0.5190337325 1.28097876 0
-0.4211657873 1.295553447 0
-0.4827594582 1.37018251 0
-0.384891513 1.384757197 0
-0.4208049784 1.63220721 0
-0.4911737147 1.596651707 0
-0.4840553033 1.660537874 0
-0.6486684502 1.476021588 0
-0.7105174335 1.470058373 0
-0.6486806018 1.740548089 0
-0.6614342618 1.686539748 0
-0.597993115 1.714708313 0
-0.6357043087 1.794503843 0
-0.598930558 1.764175262 0
0.3955401191 2.490738395 0
-0.5478205714 1.91911963 0
-0.6090137691 1.902234718 0
0.02076002188 2.030466748 0
0.1413186971 2.137656232 0
0.190258131 1.994605467 0
0.08103935946 2.08406149 0
0.165788414 2.06613085 0
0.1055090765 2.012536107 0
-0.5213670989 2.223435138 0
-0.3546697848 2.348183766 0
0.1995729358 2.618472457 0
0.2607484743 2.733150673 0
0.2585367577 2.628126583 0
0.2301607051 2.675811565 0
0.2897035049 2.685809633 0
0.1317761172 2.728950585 0
0.1656745265 2.673711521 0
0.1962622958 2.731050629 0
-0.3486064504 2.052904194 0
-0.3081458376 2.10901716 0
-0.3925577439 2.099027801 0
0.1983728088 2.824923271 0
0.165074463 2.776936928 0
0.1024669689 2.787077689 0
0.1357653147 2.835064032 0
-0.2328893017 2.317469048 0
-0.3035156981 2.300462114 0
-0.2502872633 2.241299587 0
0.1642327014 2.86865432 0
0.2399883815 2.556747926 0
-0.0636706455 3.007929316 0
-0.05561502354 2.948995852 0
-0.1172110272 2.993555364 0
0.2304082912 2.779611318 0
-0.00851554304 3.002603306 0
-0.002792311315 2.935281266 0
0.01279920945 2.867633591 0
-0.1225080451 2.680625391 0
-0.1621544346 2.575956314 0
-0.1773919762 2.682042514 0
-0.1423312399 2.628290853 0
-0.197215171 2.629707976 0
-0.01395167045 2.738183542 0
-0.08690415745 2.771386014 0
-0.06822985779 2.709404466 0
-0.1411823448 2.742606939 0
-0.2004609544 2.450918006 0
-0.2316155221 2.56606152 0
-0.1813076945 2.51343716 0
-0.250768782 2.503542366 0
-0.03075553601 2.814122965 0
-0.2840433884 2.3651907 0
0.2700164181 1.859368773 0
0.1594218478 1.860862746 0
0.1195427043 1.928481093 0
0.2301372746 1.92698712 0
-0.0005084380352 2.175108661 0
0.07040512951 2.156382447 0
0.01012579192 2.102787705 0
0.5048347969 1.614275172 0
0.4479974154 1.806153454 0
0.4764161061 1.710214313 0
0.5245070531 1.769974542 0
0.5529257438 1.674035401 0
-0.2678292147 2.431915179 0
-0.2166751281 2.384193527 0
0.1874262795 2.37712936 0
0.2403452504 2.245606189 0
0.2590516045 2.365418003 0
0.2855110899 2.299656418 0
0.213885765 2.311367774 0
0.579605971 2.086822869 0
0.3764680884 1.738228484 0
0.4048867791 1.642289343 0
0.362918679 1.968367172 0
0.4119627144 2.031579189 0
0.3297733408 2.039663339 0
0.6222656566 1.984358951 0
0.6428287623 1.781898985 0
0.7050764042 1.778407688 0
0.3599849136 1.561246988 0
0.2849118805 1.442325825 0
0.5469799683 1.529817884 0
0.5020781028 1.448775528 0
0.4599329314 1.533232816 0
0.7854398961 1.571487877 0
0.5540675837 1.088087888 0
0.625 1 0
0.6326926087 1.512542822 0
0.5905474373 1.59700011 0
0.7756129043 1.297062696 0
0.5088027406 1.203255979 0
0.7288723835 1.252512031 0
-0.2136688708 0.2953415034 0
-0.3681642677 1.232714592 0
-0.4660322129 1.218139905 0
-0.2711893692 0.7481365227 0
-0.2902157169 1.200390375 0
-0.5944862283 1.235282744 0
-0.5843921993 1.302802404 0
-0.4336450812 1.545796735 0
-0.2056102751 1.842620036 0
-0.05804576333 1.977171193 0
0.03479364969 1.946411734 0
0.1339973603 2.504145993 0
0.2339150534 2.436076377 0
0.1607118199 2.440637676 0
0.2072005938 2.499584694 0
0.2874775898 1.764836144 0
0.2684866266 2.178282848 0
0.3126458472 2.237713214 0
-0.8150189075 0.342399436 0
-0.769581993 0.414684421 0
-0.4049945161 0.5225197264 0
-0.4251610302 0.4300919512 0
-0.3351413345 0.455160663 0
-0.5872639892 0.3833128692 0
-0.5012117358 0.4000318032 0
-0.521851499 0.602248861 0
-0.5860080013 0.590045877 0
-0.551239052 0.6738302103 0
-0.4810452216 0.4924595784 0
-0.5394737131 0.5323241457 0
-0.494278851 0.9635766151 0
-0.4163759433 0.7030706955 0
-0.4577742236 0.8473346811 0
-0.4985012742 0.7242411276 0
-0.5192004143 0.7963731204 0
-0.4370750834 0.7752026883 0
-0.3805425456 0.8541863007 0
-0.3598434055 0.7820543079 0
-0.6067379174 1.143395493 0
-0.3534647658 1.501582135 0
-0.5312854215 1.189091509 0
-0.5589302663 1.354391749 0
-0.429954502 1.705399246 0
-0.4815461003 1.942740784 0
-0.3425825011 1.919063114 0
-0.3908432633 1.848827198 0
-0.4697427776 1.830416623 0
-0.4214820154 1.900652539 0
-0.402646586 1.961151359 0
-0.4056585606 2.028071899 0
-0.293268125 1.974917351 0
-0.2397170248 1.921469376 0
0.07204607139 2.618174494 0
0.1667851481 2.561309225 0
0.1030217158 2.561160244 0
0.1358095036 2.618323476 0
-0.123273798 2.232818186 0
-0.1958641223 2.129007496 0
-0.1954795114 2.198974156 0
-0.1236584089 2.162851525 0
-0.07432095124 2.484792814 0
-0.101385988 2.361597943 0
-0.1373909528 2.46785541 0
-0.08785346964 2.423195378 0
-0.1509234712 2.406257974 0
0.02960307501 2.791694168 0
0.05891222339 2.733567063 0
-0.04592867883 2.602989992 0
0.01305869628 2.610582243 0
-0.02994017464 2.670586767 0
0.02904720047 2.678179018 0
-0.08421836198 2.641807691 0
0.1019110943 2.673562539 0
-0.1671376449 2.339533495 0
-0.112329893 2.297208064 0
-0.1780815498 2.275143617 0
-0.1182376929 2.530374564 0
0.2189733499 2.124307869 0
0.1908319737 2.19163121 0
-0.06227572892 2.133996763 0
-0.061891118 2.203963424 0
0.03640921928 2.400420238 0
0.0985859229 2.270049386 0
0.1119177494 2.388774799 0
0.1430061012 2.323589373 0
0.06749757109 2.335234812 0
0.276588405 1.981486319 0
0.2434430669 2.052782487 0
0.11995231 2.203852809 0
0.04903874243 2.222579024 0
0.4387199898 1.957790043 0
0.3590069168 1.832761113 0
0.481259358 1.876683184 0
0.4054580472 1.887260313 0
0.5893759758 1.791773316 0
0.5128663381 1.827952228 0
0.5960788426 1.314934835 0
0.562254429 1.383820847 0
-0.327721907 0.6691529103 0
-0.3220311934 0.5788774258 0
0.5717594428 1.249228437 0
-0.4399627066 0.9224380789 0
-0.3627310286 0.9292896984 0
-0.4106852297 0.612795211 0
-0.3350821425 1.122976832 0
-0.3396423906 1.044097046 0
-0.340624663 1.58799261 0
-0.3475869901 1.696785821 0
-0.3567365136 1.769977858 0
0.3164675486 1.913867972 0
-0.05164149896 2.061675806 0
-0.2558194869 2.097950857 0
-0.2962800997 2.041837891 0
-0.3084757514 1.840213773 0
-0.3455944758 1.985983654 0
-0.4634230075 0.5623842937 0
-0.4691137211 0.6526597783 0
0.02444060417 2.522104706 0
0.07921898222 2.51312535 0
0.04824333778 2.5701396 0
-0.01074403733 2.562547349 0
0.03042491173 2.461262472 0
0.08520328978 2.452283115 0
-0.01803461637 2.287998883 0
-0.07065420717 2.260408534 0
-0.009271527203 2.231553772 0
-0.06012481504 2.543891403 0
-0.1040415567 2.589473153 0
-0.01895586598 2.442606526 0
-0.03248838438 2.38100909 0
-0.0597103022 2.324798413 0
0.1694655867 2.257827788 0
0.6324545671 1.241882175 0
-0.5120903681 0.8884732174 0
0.04027565326 2.279024135 0
0.009187301455 2.34420956 0
-0.02494017353 2.50344876 0
CELLS 271 1897
6 0 2 1 5 4 3
6 6 8 7 11 10 9
6 12 14 13 17 16 15
6 18 20 19 23 22 21
6 24 26 25 29 28 27
6 30 32 31 35 34 33
6 36 38 37 41 40 39
6 42 43 38 46 45 44
6 43 48 47 51 50 49
6 52 54 53 57 56 55
6 58 60 59 63 62 61
6 58 59 64 61 66 65
6 67 69 68 72 71 70
6 64 74 73 77 76 75
6 78 47 2 81 80 79
6 48 82 2 85 84 83
6 54 86 53 88 87 56
6 89 52 90 93 92 91
6 94 89 95 98 97 96
6 99 94 95 101 96 100
6 99 95 12 100 103 102
6 14 104 13 106 105 16
6 14 108 107 111 110 109
6 112 114 113 117 116 115
6 118 120 119 123 122 121
6 124 108 125 128 127 126
6 129 131 130 134 133 132
6 135 137 136 140 139 138
6 141 131 142 145 144 143
6 146 141 147 150 149 148
6 151 153 152 156 155 154
6 157 153 158 161 160 159
6 162 158 163 166 165 164
6 167 162 163 169 164 168
6 163 158 170 165 172 171
6 173 174 167 177 176 175
6 178 179 174 182 181 180
6 183 178 184 187 186 185
6 188 183 184 190 185 189
6 191 192 188 195 194 193
6 196 191 197 200 199 198
6 196 192 191 201 195 200
6 184 191 188 202 193 189
6 203 205 204 208 207 206
6 209 211 210 214 213 212
6 183 179 178 215 182 187
6 173 178 174 216 180 177
6 217 219 218 222 221 220
6 217 118 223 226 225 224
6 118 119 223 121 227 225
6 120 228 119 230 229 122
6 231 228 232 235 234 233
6 232 120 236 239 238 237
6 232 203 240 243 242 241
6 205 244 204 246 245 207
6 247 249 248 252 251 250
6 253 255 254 258 257 256
6 26 259 25 261 260 28
6 255 249 254 263 262 257
6 32 253 254 265 256 264
6 26 267 266 270 269 268
6 271 272 31 275 274 273
6 272 30 31 276 33 274
6 277 36 37 279 39 278
6 277 37 47 278 281 280
6 249 282 248 284 283 251
6 285 31 286 289 288 287
6 290 272 271 292 275 291
6 290 271 285 291 294 293
6 38 6 42 296 295 44
6 52 53 90 55 297 92
6 137 299 298 302 301 300
6 298 8 6 304 11 303
6 298 136 137 305 139 300
6 129 130 306 132 308 307
6 136 309 18 312 311 310
6 153 151 158 156 313 160
6 254 315 314 318 317 316
6 259 319 309 322 321 320
6 68 90 53 324 297 323
6 78 277 47 325 280 81
6 0 78 2 326 79 5
6 74 327 73 329 328 76
6 59 0 1 331 3 330
6 74 1 82 334 333 332
6 59 1 64 330 335 66
6 73 58 64 336 65 75
6 86 327 337 340 339 338
6 86 337 53 338 341 87
6 68 342 90 344 343 324
6 82 67 74 346 345 332
6 67 68 53 70 323 347
6 89 90 95 91 348 97
6 13 99 12 349 102 15
6 12 95 350 103 352 351
6 107 104 14 353 106 109
6 95 342 350 355 354 352
6 125 356 129 359 358 357
6 350 113 12 361 360 351
6 108 124 107 128 362 110
6 299 356 363 366 365 364
6 367 131 129 369 134 368
6 306 124 125 371 126 370
6 131 372 130 374 373 133
6 372 141 146 376 150 375
6 217 223 219 224 377 222
6 152 146 147 379 148 378
6 380 382 381 385 384 383
6 158 162 157 166 386 159
6 163 173 167 387 175 168
6 218 389 388 392 391 390
6 389 393 388 395 394 391
6 158 396 170 398 397 172
6 399 210 393 402 401 400
6 170 403 163 405 404 171
6 399 209 210 406 212 402
6 388 217 218 407 220 390
6 408 196 197 410 198 409
6 389 399 393 411 400 395
6 197 211 408 413 412 409
6 211 197 210 413 414 213
6 184 416 415 419 418 417
6 191 415 420 423 422 421
6 178 424 416 427 426 425
6 197 191 420 199 421 428
6 403 173 163 429 387 404
6 184 178 416 186 425 419
6 430 382 309 433 432 431
6 434 380 381 436 383 435
6 437 247 438 441 440 439
6 403 424 173 443 442 429
6 444 445 118 448 447 446
6 228 120 232 230 239 234
6 232 240 231 241 449 233
6 319 437 438 451 439 450
6 232 236 452 237 454 453
6 203 204 240 206 455 242
6 248 244 247 457 456 250
6 259 266 319 459 458 322
6 437 266 315 462 461 460
6 249 255 282 263 463 284
6 24 285 286 465 287 464
6 249 437 315 467 460 466
6 32 254 31 264 468 34
6 285 271 31 294 273 289
6 26 24 286 29 464 469
6 31 254 314 468 316 470
6 43 37 38 471 40 45
6 37 43 47 471 49 281
6 259 26 266 261 268 459
6 249 247 437 252 441 467
6 299 363 114 364 473 472
6 42 6 7 295 9 474
6 299 8 298 475 304 301
6 363 108 14 477 111 476
6 356 367 129 478 368 358
6 135 136 18 138 310 479
6 18 309 380 311 481 480
6 217 482 444 485 484 483
6 309 319 430 321 486 431
6 120 445 236 488 487 238
6 48 2 47 83 80 50
6 67 337 74 490 489 345
6 53 337 67 341 490 347
6 82 1 2 333 4 84
6 64 1 74 335 334 77
6 74 337 327 489 339 329
6 48 43 491 51 493 492
6 82 48 69 85 495 494
6 496 342 68 498 344 497
6 69 48 491 495 492 499
6 496 68 69 497 71 500
6 342 95 90 355 348 343
6 113 350 112 361 501 115
6 502 503 342 506 505 504
6 502 7 503 508 507 506
6 113 14 12 509 17 360
6 356 299 137 366 302 510
6 363 14 113 476 509 511
6 108 363 125 477 512 127
6 129 306 125 307 370 357
6 141 372 131 376 374 145
6 131 367 142 369 513 144
6 151 152 147 154 378 514
6 515 147 142 518 517 516
6 147 515 151 518 519 514
6 151 396 158 520 398 313
6 118 217 444 226 483 446
6 515 18 19 522 21 521
6 388 523 482 526 525 524
6 20 527 170 530 529 528
6 424 178 173 427 216 442
6 424 532 531 535 534 533
6 191 184 415 202 417 423
6 217 388 482 407 524 485
6 420 393 210 537 401 536
6 523 420 538 541 540 539
6 420 415 538 422 542 540
6 420 210 197 536 414 428
6 523 393 420 543 537 541
6 393 523 388 543 526 394
6 403 527 532 546 545 544
6 416 424 531 426 533 547
6 445 381 236 549 548 487
6 434 527 20 551 530 550
6 552 553 444 556 555 554
6 445 120 118 488 123 447
6 236 382 452 558 557 454
6 553 434 381 560 435 559
6 203 232 452 243 453 561
6 430 319 438 486 450 562
6 203 452 438 561 564 563
6 247 244 205 456 246 565
6 319 266 437 458 462 451
6 247 205 438 565 566 440
6 315 254 249 318 262 466
6 315 267 314 568 567 317
6 7 502 42 508 569 474
6 42 491 43 570 493 46
6 26 286 267 469 571 270
6 267 315 266 568 461 269
6 7 112 503 573 572 507
6 502 491 42 574 570 569
6 8 299 114 475 472 575
6 8 112 7 576 573 10
6 356 125 363 359 512 365
6 135 367 137 578 577 140
6 112 8 114 576 575 117
6 114 363 113 473 511 116
6 135 142 367 579 513 578
6 367 356 137 478 510 577
6 382 430 452 433 580 557
6 382 380 309 385 481 432
6 18 380 20 480 581 23
6 170 396 19 397 583 582
6 135 18 515 479 522 584
6 515 396 151 585 520 519
6 452 430 438 580 562 564
6 205 203 438 208 563 566
6 67 82 69 346 494 72
6 491 496 69 586 500 499
6 502 342 496 504 498 587
6 502 496 491 587 586 574
6 147 141 142 149 143 517
6 135 515 142 584 516 579
6 527 403 170 546 405 529
6 482 523 588 525 590 589
6 424 403 532 443 544 535
6 523 538 588 539 591 590
6 552 482 588 593 589 592
6 527 434 594 551 596 595
6 538 416 531 598 547 597
6 416 538 415 598 542 418
6 531 532 552 534 600 599
6 552 444 482 554 484 593
6 532 527 594 545 595 601
6 553 445 444 602 448 555
6 445 553 381 602 559 549
6 381 382 236 384 558 548
6 286 31 314 288 470 603
6 286 314 267 603 567 571
6 503 350 342 604 354 505
6 350 503 112 604 572 501
6 553 552 594 556 606 605
6 434 20 380 550 581 436
6 396 515 19 585 521 583
6 20 170 19 528 582 22
6 552 532 594 600 601 606
6 434 553 594 560 605 596
6 531 552 588 599 592 607
6 531 588 538 607 591 597
CELL_TYPES 271
22
22
22
22
22
22
22
22
22
22
22
22
22
22
22
22
22
22
22
22
22
22
22
22
22
22
22
22
22
22
22
22
22
22
22
22
22
22
22
22
22
22
22
22
22
22
22
22
22
22
22
22
22
22
22
22
22
22
22
22
22
22
22
22
22
22
22
22
22
22
22
22
22
22
22
22
22
22
22
22
22
22
22
22
22
22
22
22
22
22
22
22
22
22
22
22
22
22
22
22
22
22
22
22
22
22
22
22
22
22
22
22
22
22
22
22
22
22
22
22
22
22
22
22
22
22
22
22
22
22
22
22
22
22
22
22
22
22
22
22
22
22
22
22
22
22
22
22
22
22
22
22
22
22
22
22
22
22
22
22
22
22
22
22
22
22
22
22
22
22
22
22
22
22
22
22
22
22
22
22
22
22
22
22
22
22
22
22
22
22
22
22
22
22
22
22
22
22
22
22
22
22
22
22
22
22
22
22
22
22
22
22
22
22
22
22
22
22
22
22
22
22
22
22
22
22
22
22
22
22
22
22
22
22
22
22
22
22
22
22
22
22
22
22
22
22
22
22
22
22
22
22
22
22
22
22
22
22
22
22
22
22
22
22
22
22
22
22
22
22
22
POINT_DATA 608
SCALARS fixed int 1
LOOKUP_TABLE default
1 
0 
0 
0 
0 
0 
1 
0 
0 
0 
0 
0 
0 
1 
0 
0 
0 
0 
0 
0 
0 
0 
0 
0 
1 
1 
0 
1 
0 
0 
1 
0 
1 
0 
0 
1 
1 
0 
1 
0 
0 
1 
0 
0 
0 
0 
0 
0 
0 
0 
0 
0 
1 
0 
1 
0 
0 
1 
1 
1 
1 
0 
1 
1 
0 
0 
0 
0 
0 
0 
0 
0 
0 
1 
0 
0 
0 
0 
1 
0 
0 
0 
0 
0 
0 
0 
1 
0 
1 
1 
0 
0 
0 
1 
1 
0 
0 
0 
1 
1 
0 
1 
0 
0 
1 
1 
0 
1 
0 
0 
0 
0 
0 
0 
0 
0 
0 
0 
0 
1 
0 
0 
0 
0 
1 
0 
0 
0 
0 
0 
1 
0 
0 
0 
0 
0 
1 
0 
0 
0 
0 
0 
0 
0 
0 
0 
1 
0 
0 
0 
0 
0 
1 
1 
0 
1 
0 
1 
0 
0 
0 
1 
1 
0 
0 
0 
0 
1 
0 
1 
0 
0 
0 
0 
1 
0 
1 
0 
0 
1 
0 
1 
0 
1 
0 
0 
0 
0 
1 
0 
1 
0 
1 
0 
1 
0 
1 
0 
0 
0 
0 
1 
0 
0 
1 
0 
0 
0 
0 
1 
0 
1 
0 
0 
1 
1 
0 
0 
1 
1 
0 
1 
0 
1 
0 
0 
0 
1 
1 
1 
0 
1 
0 
0 
0 
1 
0 
0 
0 
0 
1 
0 
0 
0 
1 
1 
0 
0 
1 
0 
0 
0 
0 
1 
0 
1 
0 
0 
1 
1 
1 
0 
0 
0 
0 
1 
0 
0 
0 
0 
0 
0 
1 
0 
0 
0 
1 
1 
0 
1 
0 
0 
1 
1 
0 
1 
0 
0 
0 
0 
1 
0 
1 
1 
0 
0 
1 
0 
1 
0 
0 
0 
0 
1 
0 
1 
1 
0 
1 
1 
0 
0 
1 
0 
0 
0 
0 
0 
0 
0 
1 
0 
0 
0 
0 
1 
1 
1 
1 
0 
0 
1 
0 
0 
0 
0 
1 
0 
0 
0 
1 
0 
0 
0 
0 
0 
0 
0 
0 
1 
0 
0 
0 
1 
0 
0 
0 
0 
0 
0 
0 
0 
1 
0 
0 
0 
0 
0 
0 
0 
0 
1 
1 
1 
0 
1 
0 
1 
0 
1 
0 
0 
0 
0 
0 
0 
1 
0 
0 
1 
0 
0 
1 
0 
0 
0 
0 
0 
0 
1 
0 
0 
0 
0 
0 
0 
1 
0 
1 
0 
1 
1 
1 
0 
0 
0 
0 
0 
0 
0 
0 
0 
0 
0 
0 
0 
0 
0 
0 
0 
0 
0 
0 
0 
0 
0 
0 
0 
0 
0 
0 
0 
0 
0 
0 
0 
0 
0 
0 
1 
0 
0 
0 
0 
0 
1 
0 
1 
0 
0 
0 
0 
0 
1 
0 
1 
0 
0 
0 
0 
0 
0 
0 
0 
0 
0 
0 
0 
0 
0 
0 
0 
0 
0 
0 
0 
0 
0 
0 
0 
0 
0 
0 
0 
0 
0 
0 
0 
0 
0 
0 
0 
0 
0 
0 
0 
0 
0 
0 
0 
0 
0 
0 
0 
0 
0 
0 
0 
0 
0 
0 
0 
0 
0 
0 
0 
0 
0 
0 
0 
0 
0 
0 
0 
0 
0 
0 
0 
0 
0 
0 
0 
0 
0 
0 
0 
0 
0 
0 
0 
0 
0 
0 
0 
0 
0 
0 
0 
0 
0 
0 
0 
0 
0 
0 
0 
0 
0 
0 
0 
0 
0 
0 
0 
0 
0 
0 
0 
0 
0 
0 
0 
0 
0 
0 
0 
0 
0 
0 
0 
0 
0 
0 
0 
0 
0 
0 
0 
0 
0 
0 
0 
0 
0 
0 
0 
0 
0 
CELL_DATA 271
SCALARS GLOBAL_ID int 1
LOOKUP_TABLE default
1 
2 
3 
4 
5 
6 
7 
8 
9 
10 
11 
12 
13 
14 
15 
16 
17 
18 
19 
20 
21 
22 
23 
24 
25 
26 
27 
28 
29 
30 
31 
32 
33 
34 
35 
36 
37 
38 
39 
40 
41 
42 
43 
44 
45 
46 
47 
48 
49 
50 
51 
52 
53 
54 
55 
56 
57 
58 
59 
60 
61 
62 
63 
64 
65 
66 
67 
68 
69 
70 
71 
72 
73 
74 
75 
76 
77 
78 
79 
80 
81 
82 
83 
84 
85 
86 
87 
88 
89 
90 
91 
92 
93 
94 
95 
96 
97 
98 
99 
100 
101 
102 
103 
104 
105 
106 
107 
108 
109 
110 
111 
112 
113 
114 
115 
116 
117 
118 
119 
120 
121 
122 
123 
124 
125 
126 
127 
128 
129 
130 
131 
132 
133 
134 
135 
136 
137 
138 
139 
140 
141 
142 
143 
144 
145 
146 
147 
148 
149 
150 
151 
152 
153 
154 
155 
156 
157 
158 
159 
160 
161 
162 
163 
164 
165 
166 
167 
168 
169 
170 
171 
172 
173 
174 
175 
176 
177 
178 
179 
180 
181 
182 
183 
184 
185 
186 
187 
188 
189 
190 
191 
192 
193 
194 
195 
196 
197 
198 
199 
200 
201 
202 
203 
204 
205 
206 
207 
208 
209 
210 
211 
212 
213 
214 
215 
216 
217 
218 
219 
220 
221 
222 
223 
224 
225 
226 
227 
228 
229 
230 
231 
232 
233 
234 
235 
236 
237 
238 
239 
240 
241 
242 
243 
244 
245 
246 
247 
248 
249 
250 
251 
252 
253 
254 
255 
256 
257 
258 
259 
260 
261 
262 
263 
264 
265 
266 
267 
268 
269 
270 
271 
