# vtk DataFile Version 3.0
MOAB 3.99 (Alpha)
ASCII
DATASET UNSTRUCTURED_GRID
POINTS 605 double
-1.782210469 -0.229373719 0
-1.6 0 0
-1.443824009 -0.2635318524 0
-1.691105235 -0.1146868595 0
-1.521912005 -0.1317659262 0
-1.613017239 -0.2464527857 0
-1.064252466 -3.17728065 0
-0.8066497874 -2.98750251 0
-0.7957186021 -3.392527354 0
-0.9354511267 -3.08239158 0
-0.8011841947 -3.190014932 0
-0.9299855341 -3.284904002 0
-2.614552988 -0.2347603168 0
-2.495201644 -0.5450182926 0
-2.783183668 -0.5572838542 0
-2.554877316 -0.3898893047 0
-2.639192656 -0.5511510734 0
-2.698868328 -0.3960220855 0
-2.893356102 -0.2793290968 0
-2.8 0 0
-2.846678051 -0.1396645484 0
-2.707276494 -0.1173801584 0
-2.753954545 -0.2570447068 0
-2.838731848 -0.4184895533 0
-2.6 0 0
-2.4 0 0
-2.607276494 -0.1173801584 0
-2.5 0 0
-2.507276494 -0.1173801584 0
-2.331627933 -0.2640103315 0
-2.365813967 -0.1320051658 0
-2.473090461 -0.2493853242 0
-2.2 0 0
-2.073469061 -0.2610739642 0
-2.265813967 -0.1320051658 0
-2.136734531 -0.1305369821 0
-2.202548497 -0.2625421479 0
-1.8 0 0
-1.791105235 -0.1146868595 0
-1.7 0 0
-2 0 0
-1.891105235 -0.1146868595 0
-1.9 0 0
1.576161616 -2.408803614 0
1.708469838 -2.156038028 0
1.873534963 -2.439940774 0
1.642315727 -2.282420821 0
1.791002401 -2.297989401 0
1.72484829 -2.424372194 0
-1.163175166 -0.3763564926 0
-1.2 0 0
-1 0 0
-1.181587583 -0.1881782463 0
-1.1 0 0
-1.081587583 -0.1881782463 0
-0.8399043574 -1.99258815 0
-1.009898209 -1.539297036 0
-0.4024524576 -1.770676386 0
-0.9249012833 -1.765942593 0
-0.7061753334 -1.654986711 0
-0.6211784075 -1.881632268 0
-2.036734531 -0.1305369821 0
-1.927839765 -0.2452238416 0
-1.542652622 -2.425551847 0
-1.389563406 -2.158373484 0
-1.209368582 -2.414109631 0
-1.466108014 -2.291962666 0
-1.299465994 -2.286241558 0
-1.376010602 -2.419830739 0
0.782635488 -3.391382844 0
1.021435666 -3.102601647 0
1.163009148 -3.398848765 0
0.9020355772 -3.246992245 0
1.092222407 -3.250725206 0
0.9728223182 -3.395115804 0
1.544868908 -2.939280025 0
1.361879755 -3.175681571 0
1.232290622 -2.857208694 0
1.455175365 -3.058873181 0
1.297085189 -3.016445132 0
1.388579765 -2.898244359 0
1 0 0
1.284673616 -0.4436800705 0
0.8514541693 -0.936259832 0
1.142336808 -0.2218400352 0
1.068063893 -0.6899699512 0
0.9694637192 -0.4756485278 0
1.2 0 0
1.45317644 -0.177105307 0
1.242336808 -0.2218400352 0
1.32658822 -0.08855265352 0
1.368925028 -0.3103926888 0
1.1 0 0
1.527946152 -1.876021286 0
1.200416837 -1.905398154 0
1.348017827 -1.577903048 0
1.364181494 -1.89070972 0
1.274217332 -1.741650601 0
1.43798199 -1.726962167 0
1.674340134 -1.592227311 0
1.846451066 -1.889789836 0
1.601143143 -1.734124299 0
1.7603956 -1.741008574 0
1.687198609 -1.882905561 0
0.9685309827 -1.571621166 0
0.4024524576 -1.770676386 0
0.6854917202 -1.671148776 0
0.6669663454 -1.374199109 0
0.909992576 -1.253940499 0
0.4555906546 -2.256993103 0
0.8283865606 -2.021161289 0
0.4290215561 -2.013834744 0
0.6154195091 -1.895918837 0
0.6419886076 -2.139077196 0
1.714704867 -2.693238765 0
1.645433241 -2.551021189 0
1.795381424 -2.567380241 0
0.8264952147 -2.414833319 0
0.5085277903 -2.673245218 0
0.6675115025 -2.544039269 0
0.4820592225 -2.46511916 0
0.6410429347 -2.335913211 0
-3 0 0
-2.9 0 0
-2.947099104 -0.1398252774 0
-2.1 0 0
-1.303499588 -0.3199441725 0
-1.321912005 -0.1317659262 0
-1.921423659 -0.5313504157 0
-1.641956555 -0.5571559022 0
-1.796833122 -0.7550674342 0
-1.781690107 -0.5442531589 0
-1.719394839 -0.6561116682 0
-1.859128391 -0.6432089249 0
-1.311740982 -1.126779069 0
-0.8514541693 -0.936259832 0
-1.160819595 -1.333038052 0
-1.081597576 -1.031519451 0
-0.9306761893 -1.237778434 0
-1.46869627 -1.537330699 0
-1.652009003 -1.184881463 0
-1.560352637 -1.361106081 0
-1.481874993 -1.155830266 0
-1.390218626 -1.332054884 0
-1.809338072 -1.442239873 0
-1.731474681 -1.694103344 0
-1.639017171 -1.489785286 0
-1.600085475 -1.615717022 0
-1.770406377 -1.568171608 0
-1.329710048 -0.688343152 0
-1.090582108 -0.812301492 0
-1.246442607 -0.5323498223 0
-1.007314668 -0.6563081623 0
-1.704811743 -2.1711662 0
-2.023041265 -2.181024018 0
-1.856505294 -1.922778619 0
-1.863926504 -2.176095109 0
-1.939773279 -2.051901319 0
-1.780658519 -2.04697241 0
-1.369881302 -2.680019245 0
-1.19402872 -2.938430088 0
-1.544868908 -2.939280025 0
-1.281955011 -2.809224666 0
-1.369448814 -2.938855056 0
-1.457375105 -2.809649635 0
-1.361879755 -3.175681571 0
-1.21306611 -3.17648111 0
-1.277954238 -3.057055829 0
-1.129140593 -3.057855369 0
-0.4376700452 -3.914864414 0
-0.7039321942 -3.779768652 0
-0.4412174274 -3.586369596 0
-0.5739919109 -3.853570349 0
-0.5725748108 -3.683069124 0
-0.4394437363 -3.750617005 0
-1.163009148 -3.398848765 0
-0.9793638752 -3.395688059 0
-1.113630807 -3.288064707 0
0.1490617679 -3.990124706 0
-0.1490617679 -3.990124706 0
-0.1396906851 -3.76540146 0
-1.110223025e-15 -4 0
-0.1443762265 -3.877763083 0
0.004685541383 -3.877763083 0
0.7039321942 -3.779768652 0
0.9449078022 -3.603177442 0
0.7432838411 -3.585575748 0
0.8637716451 -3.497280143 0
0.8275016882 -3.695662647 0
-0.008583123661 -2.171769352 0
-0.2055177906 -1.971222869 0
0 -2 0
0.196934667 -1.971222869 0
-0.4408291059 -3.223122895 0
-0.121782754 -3.446449749 0
-0.28130593 -3.334786322 0
-0.2815000907 -3.516409673 0
-0.4410232667 -3.404746245 0
0.1647949693 -3.667938696 0
0.1569283686 -3.829031701 0
0.0125521421 -3.716670078 0
-0.2057875457 -2.507103505 0
-0.4715012791 -2.223539951 0
-0.1071853347 -2.339436428 0
-0.3386444124 -2.365321728 0
-0.2400422014 -2.197654651 0
2.023041265 -2.181024018 0
1.777460452 -2.022913932 0
1.934746165 -2.035406927 0
1.865755552 -2.168531023 0
1.599304434 -0.6584864845 0
1.705327515 -0.9980090955 0
1.356009363 -0.9278097187 0
1.652315974 -0.82824779 0
1.530668439 -0.9629094071 0
1.477656898 -0.7931481016 0
2.155429664 -0.8806102636 0
2.002453629 -1.06853617 0
1.919594885 -0.7357872107 0
2.078941646 -0.974573217 0
1.961024257 -0.9021616906 0
2.037512274 -0.8081987371 0
1.916178115 -0.2344533724 0
2.006359083 -0.4644517944 0
1.779580221 -0.4510641637 0
1.961268599 -0.3494525834 0
1.892969652 -0.4577579791 0
1.847879168 -0.342758768 0
1.8 0 0
1.683808941 -0.2121030701 0
1.6 0 0
1.741904471 -0.106051535 0
1.641904471 -0.106051535 0
1.7 0 0
2.596826857 -0.2383755657 0
2.475875106 -0.5636988361 0
2.224137617 -0.2671266838 0
2.536350981 -0.4010372009 0
2.350006361 -0.41541276 0
2.410482237 -0.2527511248 0
2 0 0
1.958089058 -0.1172266862 0
1.858089058 -0.1172266862 0
1.9 0 0
2.783183668 -0.5572838542 0
2.893356102 -0.2793290968 0
2.690005262 -0.39782971 0
2.745091479 -0.2588523313 0
2.838731848 -0.4184895532 0
2.2 0 0
2.212068808 -0.1335633419 0
2.112068808 -0.1335633419 0
2.1 0 0
2.4 0 0
2.312068808 -0.1335633419 0
2.498413428 -0.1191877829 0
2.8 0 0
2.698413428 -0.1191877829 0
2.846678051 -0.1396645484 0
2.6 0 0
2.598413428 -0.1191877829 0
2.7 0 0
3 0 0
2.9 0 0
2.947099104 -0.1398252774 0
-0.9694637192 -0.4756485278 0
-1.4 0 0
-1.421912005 -0.1317659262 0
-1.3 0 0
1.4 0 0
1.42658822 -0.08855265352 0
1.3 0 0
1.568492691 -0.1946041886 0
1.52658822 -0.08855265352 0
1.5 0 0
1.558854993 -0.3903757173 0
1.506015717 -0.2837405122 0
1.421764305 -0.4170278939 0
-2.669128644 -0.8336676803 0
-2.582165144 -0.6893429865 0
-2.726665803 -0.6956860435 0
-2.7 0 0
-2.427639589 -1.380696012 0
-2.550776651 -1.108239322 0
-2.237069667 -1.121803805 0
-2.489840356 -1.244753334 0
-2.393923159 -1.115021564 0
-2.332354628 -1.251249909 0
-2.3 0 0
-2.113027033 -1.405593369 0
-2.299133133 -1.650660817 0
-2.270333311 -1.393144691 0
-2.206080083 -1.528127093 0
-2.364098389 -1.516017247 0
-2.413414789 -0.4045143121 0
-1.386767029 -0.4759375022 0
-2.365816724 -0.8331070882 0
-2.20398916 -0.5461164094 0
-2.430509184 -0.6890626904 0
-2.349595402 -0.545567351 0
-2.284902942 -0.6896117488 0
-1.542890282 -0.4103438773 0
-1.712083512 -0.3932648106 0
-1.5 0 0
-0.6669663454 -1.374199109 0
-1.714704867 -2.693238765 0
-1.873534963 -2.439940774 0
-1.795381424 -2.567380241 0
-1.708093793 -2.43274631 0
-1.628678744 -2.559395306 0
-0.1307367196 -3.605925605 0
-0.2904540562 -3.675885528 0
-1.101376718 -2.165597008 0
-1.245470062 -2.161985246 0
-1.15537265 -2.28985332 0
2.299133133 -1.650660817 0
2.164553208 -1.917648626 0
1.990297447 -1.621964469 0
2.232651986 -1.784562271 0
2.077425328 -1.769806548 0
2.14471529 -1.636312643 0
0.2235037655 -2.214381227 0
1.103731766 -0.9320347753 0
1.320341489 -0.6857448946 0
1.799993528 -0.2232782212 0
2.275745004 -1.109831442 0
2.215587334 -0.9952208527 0
2.139099316 -1.089183806 0
2.070157866 -0.2507900281 0
1.731694581 -0.3315836169 0
1.669217607 -0.4207199405 0
1.621331967 -0.3012393937 0
2.3 0 0
2.194304588 -0.628316834 0
2.209221102 -0.4477217589 0
2.100331835 -0.5463843142 0
2.11524835 -0.3657892391 0
2.5 0 0
-2.267808547 -0.4050633705 0
-2.517472684 -0.8333873843 0
-2.458296688 -0.9706732053 0
-2.610518357 -0.971197293 0
-2.138729111 -0.4035951868 0
-1.99744636 -0.3962121899 0
-2.06270641 -0.5387334125 0
-1.320725515 -0.9075611106 0
-2.301443195 -0.9774554468 0
-2.164553208 -1.917648626 0
-1.990071623 -1.673290663 0
-2.232651986 -1.784562271 0
-2.144602378 -1.66197574 0
-2.077312415 -1.795469644 0
-2.17504835 -1.263698587 0
-2.094724879 -2.049834525 0
-2.010529251 -1.920213623 0
-2.051549328 -1.539442016 0
-1.949363532 -2.311103032 0
-1.789173353 -2.305553487 0
-1.923288458 -1.798034641 0
-1.226150677 -1.881111738 0
-1.239297239 -1.538313867 0
-1.118024443 -1.710204387 0
-1.347423473 -1.709221218 0
-1.542293084 -2.686629005 0
-1.631285208 -2.817292697 0
-1.455175365 -3.058873181 0
-1.623732183 -2.298359023 0
-1.264627747 -3.289207405 0
-1.456266962 -2.552785546 0
-0.4369768684 -1.997108168 0
-0.6557028183 -2.108064051 0
-0.9449078022 -3.603177442 0
-1.056597507 -3.503822982 0
-0.8703132021 -3.497852398 0
-0.7498253982 -3.586148003 0
-0.8275016882 -3.695662647 0
-0.3959230526 -2.828237626 0
0.005330726384 -2.780181898 0
-0.07488759281 -3.10016382 0
-0.1952961631 -2.804209762 0
-0.03477843321 -2.940172859 0
-0.2354053227 -2.964200723 0
-0.2886803651 -3.840132937 0
-0.2956414958 -3.961153825 0
-0.6184680147 -3.489448475 0
0.4376700452 -3.914864414 0
0.2956414958 -3.961153825 0
0.3012325072 -3.791401555 0
0.4644676908 -3.558404153 0
0.5739919109 -3.853570349 0
0.451068868 -3.736634284 0
0.5841999425 -3.669086402 0
-0.7204444017 -2.679412096 0
-0.5581837271 -2.753824861 0
-0.60128642 -2.907870068 0
-0.7635470945 -2.833457303 0
1.056597507 -3.503822982 0
0.31463133 -3.613171425 0
1.191657711 -3.139141609 0
1.264627747 -3.289207405 0
0.6235515894 -3.474893498 0
0.2037366762 -3.337002984 0
-0.09833517342 -3.273306784 0
0.06442454168 -3.218583402 0
0.04097696107 -3.391726367 0
0.6682382019 -3.028886164 0
0.9007879114 -2.766417506 0
0.7845130567 -2.897651835 0
0.9611117889 -2.934509577 0
0.8448369341 -3.065743906 0
1.42276559 -2.635341146 0
1.483817249 -2.787310585 0
1.568735229 -2.664289955 0
1.631285208 -2.817292697 0
1.126863144 -2.979905171 0
1.33355611 -2.39520813 0
1.408927453 -2.156823123 0
1.454858863 -2.402005872 0
1.371241781 -2.276015626 0
1.492544534 -2.282813369 0
0.8984587716 -1.796391228 0
1.327528106 -2.74627492 0
1.949363532 -2.311103032 0
1.499463603 -2.52207238 0
1.304672145 -2.031110639 0
1.468436802 -2.016422204 0
2.005502137 -1.903719231 0
2.094724879 -2.049834525 0
1.517788252 -1.277616937 0
1.205192847 -1.256103396 0
1.43290304 -1.427759992 0
1.276605337 -1.417003222 0
1.36149055 -1.266860166 0
2.136275132 -1.359518658 0
2.427639589 -1.380696012 0
2.217704132 -1.505089737 0
2.28195736 -1.370107335 0
2.364098389 -1.516017247 0
2.550776651 -1.108239322 0
2.351692296 -1.245263727 0
2.413260827 -1.109035382 0
2.489840356 -1.244753334 0
1.918374257 -1.755877153 0
1.579079714 -0.5244311009 0
1.441989025 -0.5510832775 0
2.063286289 -1.490741564 0
2.669128644 -0.8336676803 0
2.387050225 -0.8550689535 0
2.610518357 -0.971197293 0
2.468913438 -0.9816541379 0
2.528089435 -0.8443683169 0
2.206010068 -1.23467505 0
2.726665803 -0.6956860435 0
2.572501875 -0.6986832582 0
2.629529387 -0.5604913452 0
2.331397614 -0.9824501977 0
2.431462665 -0.7093838948 0
-1.937045581 -1.160203929 0
-1.873191827 -1.301221901 0
-1.794527292 -1.172542696 0
-1.730673538 -1.313560668 0
-1.851817064 -0.3803620673 0
2.06936438 -1.214027414 0
1.028323508 -1.096181614 0
1.086861915 -1.413862281 0
-2.035552282 -0.8440956464 0
-2.200684503 -0.8386013673 0
-2.136310974 -0.9829497259 0
-2.119770721 -0.6951060279 0
-1.485833301 -0.6227495271 0
-2.087057624 -1.141003867 0
-2.025036307 -1.282898649 0
-1.961182552 -1.423916621 0
-1.585955222 -0.8787056322 0
-1.457832635 -0.7835243921 0
-1.613955888 -0.7179307672 0
-1.024081851 -2.679071658 0
-1.196981577 -2.679545451 0
-1.109055286 -2.808750873 0
-0.8418965665 -2.381802036 0
-0.9716366422 -2.273699522 0
-1.025632574 -2.397955834 0
1.139233844 -2.546213753 0
1.020010878 -2.65631563 0
1.185762233 -2.701711224 0
1.066539267 -2.8118131 0
-0.1002284097 -2.643642701 0
-0.3008552992 -2.667670565 0
-0.9153658194 -2.833287084 0
-1.000339254 -2.962966299 0
-0.932989209 -2.530436847 0
-1.116725217 -2.546590645 0
1.280601105 -1.091956557 0
1.836814528 -1.319818052 0
1.98654483 -1.339668355 0
1.919634079 -1.194177111 0
1.618207995 -2.016029657 0
0.8636415631 -2.590625413 0
0.9828645294 -2.480523536 0
2.335089847 -0.5960078351 0
1.759449659 -0.6971368476 0
1.689442327 -0.5547753241 0
1.849587553 -0.5934256872 0
-1.978487971 -0.687723031 0
-1.799277894 -0.9640295744 0
-1.798055508 -0.8595485043 0
-1.917415088 -0.9040626104 0
-1.916192702 -0.7995815403 0
-1.899704847 -1.557765268 0
-1.986298932 -1.002149788 0
-1.618982113 -1.031793547 0
-1.448848102 -1.002742351 0
-1.860773152 -1.683697003 0
-1.793989988 -1.808440982 0
-1.558156616 -1.894095263 0
-1.707330955 -1.908436941 0
-1.63148418 -2.032630731 0
-1.547187575 -2.164769842 0
-1.644815648 -1.794099303 0
-1.289624942 -2.547064438 0
-1.163763697 -2.023354373 0
-1.307857042 -2.019742611 0
-0.5271105691 -2.524019043 0
-0.4993059241 -2.373779497 0
-0.6845035678 -2.452910539 0
-0.6566989228 -2.302670993 0
-0.618273854 -3.307825124 0
0.4856873858 -3.261055569 0
0.4750775383 -3.409729861 0
0.6341614369 -3.326219206 0
-0.6237394467 -3.105312702 0
0.1842658227 -3.50247084 0
0.3341021835 -3.447703569 0
0.02150610763 -3.557194223 0
0.2930808284 -2.987603222 0
0.4806595151 -3.008244693 0
0.4008043093 -2.83042422 0
0.5883829961 -2.851065691 0
0.725436845 -3.210134504 0
0.344712031 -3.299029277 0
0.5769627939 -3.144970866 0
0.7046578509 -2.719831362 0
1.280999717 -2.59077745 0
0.8274408876 -2.217997304 0
1.37816085 -2.515274638 0
1.558698646 -2.156430575 0
1.122836003 -2.239939628 0
0.9756112818 -2.130550458 0
1.014401699 -1.963279721 0
1.16162642 -2.072668891 0
1.83231879 -1.60709589 0
1.596064193 -1.434922124 0
1.511178981 -1.585065179 0
1.913555987 -1.470891261 0
1.436898808 -1.102713328 0
2.271239944 -0.8678396085 0
1.962976984 -0.6001195025 0
2.174867126 -0.7544635488 0
2.290677407 -0.7416928937 0
2.056949736 -0.6820520224 0
1.611557884 -1.137813016 0
-1.868161737 -1.062116752 0
-1.725643448 -1.074455519 0
-1.513426443 -1.715712981 0
-1.392153646 -1.8876035 0
-1.033027517 -1.936849944 0
0.1679718986 -2.519925948 0
0.3117812766 -2.388459525 0
0.07969438747 -2.34584765 0
0.2437278109 -2.740239072 0
0.1492057774 -2.88389256 0
0.1245292686 -2.760210485 0
0.2684043196 -2.863921147 0
-0.6237774854 -2.601715569 0
-0.7811704841 -2.530607066 0
-0.01890782357 -2.513514727 0
-0.8409004619 -2.187195093 0
-0.8722631266 -2.679241877 0
1.771071022 -1.158913574 0
1.853890572 -1.033272633 0
1.158274405 -1.574762107 0
1.08447391 -1.73850966 0
1.265881728 -2.198381376 0
0.3382498444 -2.596585583 0
0.9746656089 -2.327386474 0
1.131034924 -2.393076691 0
1.8124612 -0.8668981531 0
-1.691394172 -0.8168865332 0
-1.692616558 -0.9213676033 0
-1.473860011 -2.026234374 0
-0.4183760792 -3.02568026 0
-0.4615168108 -2.676128334 0
-0.3664490574 -2.515561274 0
-0.2578583494 -3.161643357 0
0.2484087523 -3.162303103 0
0.3893841071 -3.124329396 0
0.1090966178 -3.043883521 0
0.08665131249 -2.650053923 0
0.2058498548 -2.63008251 0
1.236394977 -2.470710942 0
1.228196056 -2.317573879 0
1.755577331 -1.456022681 0
1.67730139 -1.298717494 0
-0.9706405376 -2.079092579 0
0.3761278006 -2.706742145 0
CELLS 272 1904
6 0 2 1 5 4 3
6 6 8 7 11 10 9
6 12 14 13 17 16 15
6 18 12 19 22 21 20
6 14 12 18 17 22 23
6 12 25 24 28 27 26
6 25 12 29 28 31 30
6 29 33 32 36 35 34
6 0 1 37 3 39 38
6 0 37 40 38 42 41
6 43 45 44 48 47 46
6 49 51 50 54 53 52
6 55 57 56 60 59 58
6 33 0 40 62 41 61
6 63 65 64 68 67 66
6 69 71 70 74 73 72
6 75 77 76 80 79 78
6 81 83 82 86 85 84
6 82 88 87 91 90 89
6 81 82 87 84 89 92
6 93 95 94 98 97 96
6 93 100 99 103 102 101
6 104 83 105 108 107 106
6 109 110 105 113 112 111
6 114 45 43 116 48 115
6 117 109 118 121 120 119
6 122 18 19 124 20 123
6 33 40 32 61 125 35
6 49 50 2 52 127 126
6 128 130 129 133 132 131
6 56 135 134 138 137 136
6 139 134 140 143 142 141
6 144 145 139 148 147 146
6 135 49 149 152 151 150
6 153 155 154 158 157 156
6 159 161 160 164 163 162
6 6 160 165 168 167 166
6 169 171 170 174 173 172
6 8 6 175 11 177 176
6 178 180 179 183 182 181
6 184 185 69 188 187 186
6 189 105 57 192 191 190
6 193 171 194 197 196 195
6 198 180 178 200 183 199
6 189 202 201 205 204 203
6 44 206 100 209 208 207
6 210 212 211 215 214 213
6 216 218 217 221 220 219
6 222 224 223 227 226 225
6 228 230 229 233 232 231
6 234 236 235 239 238 237
6 240 228 222 243 242 241
6 244 245 234 248 247 246
6 249 240 236 252 251 250
6 236 234 253 239 255 254
6 245 256 234 258 257 247
6 256 259 234 261 260 257
6 245 262 256 264 263 258
6 135 51 49 265 54 152
6 50 266 2 268 267 127
6 269 87 88 271 90 270
6 230 88 229 273 272 232
6 230 269 88 274 270 273
6 88 82 275 91 277 276
6 14 278 13 280 279 16
6 12 24 19 26 281 21
6 282 284 283 287 286 285
6 32 25 29 288 30 34
6 282 290 289 293 292 291
6 29 12 13 31 15 294
6 49 2 149 126 295 151
6 296 297 13 300 299 298
6 0 129 2 302 301 5
6 2 266 1 267 303 4
6 57 135 56 304 138 59
6 305 63 306 309 308 307
6 171 180 194 311 310 196
6 64 65 312 67 314 313
6 315 317 316 320 319 318
6 109 105 189 111 192 321
6 212 82 83 323 85 322
6 228 229 222 231 324 242
6 217 325 216 327 326 219
6 240 222 236 241 328 251
6 229 275 224 331 330 329
6 236 253 249 254 332 250
6 236 223 333 336 335 334
6 234 259 253 260 337 255
6 13 297 29 299 338 294
6 278 283 296 341 340 339
6 13 278 296 279 339 298
6 297 128 33 344 343 342
6 135 149 134 150 345 137
6 284 296 283 346 340 286
6 347 348 290 351 350 349
6 284 282 289 287 291 352
6 154 155 347 157 354 353
6 348 289 290 355 292 350
6 306 153 154 357 156 356
6 155 348 347 358 351 354
6 139 359 56 362 361 360
6 305 161 159 364 164 363
6 161 165 160 365 167 163
6 63 153 306 366 357 308
6 175 6 165 177 166 367
6 63 305 159 309 363 368
6 57 55 202 60 370 369
6 371 8 175 373 176 372
6 189 57 202 190 369 205
6 371 170 8 375 374 373
6 376 378 377 381 380 379
6 169 179 180 383 182 382
6 171 8 170 384 374 173
6 385 198 178 387 199 386
6 171 169 180 174 382 311
6 184 388 385 391 390 389
6 392 7 376 395 394 393
6 71 69 185 74 187 396
6 388 198 385 397 387 390
6 71 76 70 399 398 73
6 388 184 69 391 186 400
6 194 401 378 404 403 402
6 405 70 406 409 408 407
6 75 114 410 413 412 411
6 77 70 76 414 398 79
6 43 416 415 419 418 417
6 110 104 105 420 106 112
6 77 75 410 80 411 421
6 45 206 44 422 209 47
6 410 114 43 412 115 423
6 416 93 94 425 96 424
6 206 316 100 427 426 208
6 428 429 95 432 431 430
6 315 434 433 437 436 435
6 434 438 325 441 440 439
6 317 100 316 442 426 319
6 275 82 210 277 444 443
6 317 315 433 320 435 445
6 446 447 438 450 449 448
6 433 434 325 436 439 451
6 244 235 446 454 453 452
6 447 325 438 455 440 449
6 244 234 235 246 237 454
6 235 447 446 456 450 453
6 144 140 457 460 459 458
6 128 0 33 461 62 343
6 217 433 325 462 451 327
6 83 104 429 108 464 463
6 82 212 210 323 215 444
6 229 88 275 272 276 331
6 296 284 465 346 467 466
6 297 33 29 342 36 338
6 129 0 128 302 461 131
6 296 465 297 466 468 300
6 129 149 2 469 295 301
6 289 457 284 471 470 352
6 457 289 144 471 472 458
6 149 129 473 469 475 474
6 160 476 159 478 477 162
6 65 479 312 481 480 314
6 406 77 482 485 484 483
6 201 376 377 487 379 486
6 476 160 7 478 489 488
6 65 476 479 491 490 481
6 212 83 429 322 463 492
6 433 217 493 462 495 494
6 100 93 44 103 496 207
6 482 117 406 498 497 483
6 222 229 224 324 329 227
6 236 222 223 328 225 336
6 235 236 333 238 334 499
6 218 224 210 502 501 500
6 465 128 297 503 344 468
6 130 465 504 507 506 505
6 289 348 144 355 508 472
6 457 465 284 509 467 470
6 140 134 473 142 511 510
6 155 145 348 513 512 358
6 153 514 155 516 515 158
6 145 144 348 148 508 512
6 153 63 64 366 66 517
6 514 145 155 518 513 515
6 63 159 65 368 519 68
6 359 64 312 521 313 520
6 160 6 7 168 9 489
6 476 65 159 491 519 477
6 202 479 522 525 524 523
6 171 193 8 197 526 384
6 388 69 527 400 529 528
6 193 7 8 530 10 526
6 198 388 401 397 532 531
6 198 194 180 533 310 200
6 405 118 534 537 536 535
6 194 198 401 533 531 404
6 70 405 69 409 538 72
6 401 388 527 532 528 539
6 70 77 406 414 485 408
6 405 527 69 540 529 538
6 117 118 406 119 541 497
6 77 410 482 421 542 484
6 117 110 109 543 113 121
6 410 43 415 423 417 544
6 43 44 416 46 545 419
6 546 94 110 549 548 547
6 100 317 99 442 550 102
6 93 416 44 425 545 496
6 428 95 99 430 552 551
6 433 493 317 494 553 445
6 212 429 428 492 432 554
6 325 447 216 455 555 326
6 224 218 223 502 556 226
6 216 447 333 555 558 557
6 447 235 333 456 499 558
6 333 223 218 335 556 559
6 224 275 210 330 443 501
6 212 428 211 554 560 214
6 134 149 473 345 474 511
6 140 504 457 562 561 459
6 56 134 139 136 143 360
6 145 514 139 518 563 147
6 139 514 359 563 564 362
6 359 55 56 565 58 361
6 109 189 566 321 568 567
6 534 569 377 572 571 570
6 479 392 522 574 573 524
6 566 189 201 568 203 575
6 202 55 479 370 576 525
6 7 392 476 395 577 488
6 493 217 211 495 579 578
6 429 104 95 464 580 431
6 95 93 99 98 101 552
6 110 94 104 548 581 420
6 94 546 416 549 582 424
6 109 566 118 567 583 120
6 117 482 546 498 585 584
6 94 95 104 97 580 581
6 216 333 218 557 559 221
6 210 211 218 213 586 500
6 465 457 504 509 561 506
6 473 129 130 475 132 587
6 144 139 140 146 141 460
6 140 473 504 510 588 562
6 514 153 64 516 517 589
6 514 64 359 589 521 564
6 7 193 376 530 590 394
6 392 479 476 574 490 577
6 376 201 522 487 592 591
6 193 194 378 195 402 593
6 527 534 401 595 594 539
6 378 376 193 381 590 593
6 534 527 405 595 540 535
6 534 378 401 596 403 594
6 118 405 406 537 407 541
6 569 566 377 598 597 571
6 482 410 415 542 544 599
6 482 415 546 599 600 585
6 493 99 317 601 550 553
6 99 493 428 601 602 551
6 128 465 130 503 507 133
6 504 473 130 588 587 505
6 55 359 312 565 520 603
6 55 312 479 603 480 576
6 566 201 377 575 486 597
6 378 534 377 596 570 380
6 201 202 522 204 523 592
6 392 376 522 393 591 573
6 546 415 416 600 418 582
6 546 110 117 547 543 584
6 211 217 218 579 220 586
6 428 493 211 602 578 560
6 118 566 569 583 598 604
6 118 569 534 604 572 536
CELL_TYPES 272
22
22
22
22
22
22
22
22
22
22
22
22
22
22
22
22
22
22
22
22
22
22
22
22
22
22
22
22
22
22
22
22
22
22
22
22
22
22
22
22
22
22
22
22
22
22
22
22
22
22
22
22
22
22
22
22
22
22
22
22
22
22
22
22
22
22
22
22
22
22
22
22
22
22
22
22
22
22
22
22
22
22
22
22
22
22
22
22
22
22
22
22
22
22
22
22
22
22
22
22
22
22
22
22
22
22
22
22
22
22
22
22
22
22
22
22
22
22
22
22
22
22
22
22
22
22
22
22
22
22
22
22
22
22
22
22
22
22
22
22
22
22
22
22
22
22
22
22
22
22
22
22
22
22
22
22
22
22
22
22
22
22
22
22
22
22
22
22
22
22
22
22
22
22
22
22
22
22
22
22
22
22
22
22
22
22
22
22
22
22
22
22
22
22
22
22
22
22
22
22
22
22
22
22
22
22
22
22
22
22
22
22
22
22
22
22
22
22
22
22
22
22
22
22
22
22
22
22
22
22
22
22
22
22
22
22
22
22
22
22
22
22
22
22
22
22
22
22
22
22
22
22
22
22
22
22
22
22
22
22
22
22
22
22
22
22
22
22
22
22
22
22
POINT_DATA 605
SCALARS fixed int 1
LOOKUP_TABLE default
0 
1 
0 
0 
0 
0 
0 
0 
0 
0 
0 
0 
0 
0 
1 
0 
0 
0 
1 
1 
0 
0 
0 
1 
1 
1 
0 
1 
0 
0 
0 
0 
1 
0 
0 
0 
0 
1 
0 
1 
1 
0 
1 
0 
0 
1 
0 
0 
0 
0 
1 
1 
0 
1 
0 
0 
0 
1 
0 
0 
0 
0 
0 
0 
0 
0 
0 
0 
0 
0 
0 
1 
0 
0 
0 
1 
1 
0 
1 
0 
0 
1 
0 
1 
0 
0 
1 
1 
0 
0 
0 
0 
1 
0 
0 
0 
0 
0 
0 
0 
0 
0 
0 
0 
0 
1 
0 
1 
0 
0 
0 
0 
0 
0 
1 
0 
1 
0 
0 
0 
0 
0 
1 
1 
1 
1 
0 
0 
0 
0 
0 
0 
0 
0 
0 
1 
0 
0 
0 
0 
0 
0 
0 
0 
0 
0 
0 
0 
0 
0 
0 
0 
0 
0 
1 
0 
0 
0 
0 
0 
0 
1 
0 
0 
0 
1 
0 
0 
0 
1 
1 
0 
1 
0 
0 
1 
0 
0 
1 
1 
0 
1 
0 
0 
1 
1 
0 
0 
1 
0 
0 
1 
0 
0 
0 
0 
0 
0 
0 
0 
0 
0 
0 
0 
0 
0 
1 
0 
0 
0 
0 
0 
0 
0 
0 
0 
0 
0 
0 
0 
0 
0 
0 
0 
0 
0 
0 
0 
1 
0 
1 
0 
0 
1 
0 
0 
0 
0 
0 
0 
1 
0 
0 
1 
1 
1 
0 
0 
1 
1 
0 
0 
1 
1 
0 
0 
1 
0 
0 
1 
0 
1 
1 
1 
1 
1 
1 
0 
1 
1 
0 
1 
0 
0 
1 
0 
0 
0 
1 
0 
1 
1 
1 
1 
0 
1 
0 
0 
1 
0 
1 
0 
0 
1 
0 
0 
0 
0 
0 
0 
0 
0 
0 
1 
1 
1 
1 
1 
0 
0 
0 
0 
0 
0 
0 
1 
1 
0 
1 
0 
0 
0 
0 
0 
0 
0 
0 
0 
0 
0 
0 
0 
1 
0 
0 
0 
0 
1 
0 
0 
0 
1 
0 
0 
0 
0 
0 
1 
0 
1 
0 
0 
0 
1 
0 
0 
1 
0 
0 
0 
0 
0 
0 
0 
1 
1 
0 
1 
0 
0 
0 
1 
1 
0 
0 
1 
0 
0 
0 
0 
0 
0 
0 
1 
0 
1 
1 
0 
0 
1 
0 
0 
0 
0 
0 
0 
1 
0 
0 
1 
0 
0 
0 
0 
0 
0 
0 
0 
0 
0 
0 
0 
0 
1 
0 
0 
0 
0 
0 
0 
0 
0 
1 
0 
0 
0 
0 
1 
0 
0 
0 
0 
0 
0 
1 
0 
0 
1 
1 
0 
0 
1 
0 
0 
0 
0 
1 
0 
1 
0 
0 
0 
1 
0 
0 
0 
0 
0 
0 
0 
0 
0 
0 
0 
0 
0 
0 
0 
0 
0 
0 
0 
0 
0 
0 
0 
0 
0 
0 
0 
0 
0 
0 
0 
0 
0 
0 
0 
0 
0 
0 
0 
0 
0 
0 
0 
0 
0 
0 
0 
0 
0 
0 
0 
0 
0 
0 
0 
0 
0 
0 
0 
0 
0 
0 
0 
0 
0 
0 
0 
0 
0 
0 
0 
0 
0 
0 
0 
0 
0 
0 
0 
0 
0 
0 
0 
0 
0 
0 
0 
0 
0 
0 
0 
0 
0 
0 
0 
0 
0 
0 
0 
0 
0 
0 
0 
0 
0 
0 
0 
0 
0 
0 
0 
0 
0 
0 
0 
0 
0 
0 
0 
0 
0 
0 
0 
0 
0 
0 
0 
0 
0 
0 
0 
0 
0 
0 
0 
0 
0 
0 
0 
0 
0 
0 
0 
0 
0 
0 
0 
0 
0 
0 
0 
0 
CELL_DATA 272
SCALARS GLOBAL_ID int 1
LOOKUP_TABLE default
1 
2 
3 
4 
5 
6 
7 
8 
9 
10 
11 
12 
13 
14 
15 
16 
17 
18 
19 
20 
21 
22 
23 
24 
25 
26 
27 
28 
29 
30 
31 
32 
33 
34 
35 
36 
37 
38 
39 
40 
41 
42 
43 
44 
45 
46 
47 
48 
49 
50 
51 
52 
53 
54 
55 
56 
57 
58 
59 
60 
61 
62 
63 
64 
65 
66 
67 
68 
69 
70 
71 
72 
73 
74 
75 
76 
77 
78 
79 
80 
81 
82 
83 
84 
85 
86 
87 
88 
89 
90 
91 
92 
93 
94 
95 
96 
97 
98 
99 
100 
101 
102 
103 
104 
105 
106 
107 
108 
109 
110 
111 
112 
113 
114 
115 
116 
117 
118 
119 
120 
121 
122 
123 
124 
125 
126 
127 
128 
129 
130 
131 
132 
133 
134 
135 
136 
137 
138 
139 
140 
141 
142 
143 
144 
145 
146 
147 
148 
149 
150 
151 
152 
153 
154 
155 
156 
157 
158 
159 
160 
161 
162 
163 
164 
165 
166 
167 
168 
169 
170 
171 
172 
173 
174 
175 
176 
177 
178 
179 
180 
181 
182 
183 
184 
185 
186 
187 
188 
189 
190 
191 
192 
193 
194 
195 
196 
197 
198 
199 
200 
201 
202 
203 
204 
205 
206 
207 
208 
209 
210 
211 
212 
213 
214 
215 
216 
217 
218 
219 
220 
221 
222 
223 
224 
225 
226 
227 
228 
229 
230 
231 
232 
233 
234 
235 
236 
237 
238 
239 
240 
241 
242 
243 
244 
245 
246 
247 
248 
249 
250 
251 
252 
253 
254 
255 
256 
257 
258 
259 
260 
261 
262 
263 
264 
265 
266 
267 
268 
269 
270 
271 
272 
