# vtk DataFile Version 2.0
Mesquite Mesh
ASCII
DATASET UNSTRUCTURED_GRID
POINTS 84 float
2 0 0
1.73205 -1 0
2.29988 -1.32784 0
2.65567 0 0
2.70675 -1.56274 0
3.12548 0 0
2.99828 -1.73106 0
3.46212 0 0
3.20717 -1.85166 0
3.70333 0 0
3.35685 -1.93808 0
3.87616 0 0
3.4641 -2 0
4 0 0
1 -1.73205 0
1.32784 -2.29988 0
1.56274 -2.70675 0
1.73106 -2.99828 0
1.85166 -3.20717 0
1.93808 -3.35685 0
2 -3.4641 0
1.22465e-16 -2 0
-1.58574e-16 -2.65567 0
-3.59947e-16 -3.12548 0
-5.04237e-16 -3.46212 0
-6.07626e-16 -3.70333 0
-6.81707e-16 -3.87616 0
-7.34788e-16 -4 0
-1 -1.73205 0
-1.32784 -2.29988 0
-1.56274 -2.70675 0
-1.73106 -2.99828 0
-1.85166 -3.20717 0
-1.93808 -3.35685 0
-2 -3.4641 0
-1.73205 -1 0
-2.29988 -1.32784 0
-2.70675 -1.56274 0
-2.99828 -1.73106 0
-3.20717 -1.85166 0
-3.35685 -1.93808 0
-3.4641 -2 0
-2 -2.44929e-16 0
-2.65567 -4.03898e-18 0
-3.12548 1.68567e-16 0
-3.46212 2.92244e-16 0
-3.70333 3.80862e-16 0
-3.87616 4.4436e-16 0
-4 4.89859e-16 0
-1.73205 1 0
-2.29988 1.32784 0
-2.70675 1.56274 0
-2.99828 1.73106 0
-3.20717 1.85166 0
-3.35685 1.93808 0
-3.4641 2 0
-1 1.73205 0
-1.32784 2.29988 0
-1.56274 2.70675 0
-1.73106 2.99828 0
-1.85166 3.20717 0
-1.93808 3.35685 0
-2 3.4641 0
-3.67394e-16 2 0
-1.66652e-16 2.65567 0
-2.28141e-17 3.12548 0
8.02502e-17 3.46212 0
1.54099e-16 3.70333 0
2.07014e-16 3.87616 0
2.44929e-16 4 0
1 1.73205 0
1.32784 2.29988 0
1.56274 2.70675 0
1.73106 2.99828 0
1.85166 3.20717 0
1.93808 3.35685 0
2 3.4641 0
1.73205 1 0
2.29988 1.32784 0
2.70675 1.56274 0
2.99828 1.73106 0
3.20717 1.85166 0
3.35685 1.93808 0
3.4641 2 0
CELLS 72 360
4 0 1 2 3
4 3 2 4 5
4 5 4 6 7
4 7 6 8 9
4 9 8 10 11
4 11 10 12 13
4 1 14 15 2
4 2 15 16 4
4 4 16 17 6
4 6 17 18 8
4 8 18 19 10
4 10 19 20 12
4 14 21 22 15
4 15 22 23 16
4 16 23 24 17
4 17 24 25 18
4 18 25 26 19
4 19 26 27 20
4 21 28 29 22
4 22 29 30 23
4 23 30 31 24
4 24 31 32 25
4 25 32 33 26
4 26 33 34 27
4 28 35 36 29
4 29 36 37 30
4 30 37 38 31
4 31 38 39 32
4 32 39 40 33
4 33 40 41 34
4 35 42 43 36
4 36 43 44 37
4 37 44 45 38
4 38 45 46 39
4 39 46 47 40
4 40 47 48 41
4 42 49 50 43
4 43 50 51 44
4 44 51 52 45
4 45 52 53 46
4 46 53 54 47
4 47 54 55 48
4 49 56 57 50
4 50 57 58 51
4 51 58 59 52
4 52 59 60 53
4 53 60 61 54
4 54 61 62 55
4 56 63 64 57
4 57 64 65 58
4 58 65 66 59
4 59 66 67 60
4 60 67 68 61
4 61 68 69 62
4 63 70 71 64
4 64 71 72 65
4 65 72 73 66
4 66 73 74 67
4 67 74 75 68
4 68 75 76 69
4 70 77 78 71
4 71 78 79 72
4 72 79 80 73
4 73 80 81 74
4 74 81 82 75
4 75 82 83 76
4 77 0 3 78
4 78 3 5 79
4 79 5 7 80
4 80 7 9 81
4 81 9 11 82
4 82 11 13 83
CELL_TYPES 72
9
9
9
9
9
9
9
9
9
9
9
9
9
9
9
9
9
9
9
9
9
9
9
9
9
9
9
9
9
9
9
9
9
9
9
9
9
9
9
9
9
9
9
9
9
9
9
9
9
9
9
9
9
9
9
9
9
9
9
9
9
9
9
9
9
9
9
9
9
9
9
9
POINT_DATA 84
SCALARS fixed bit
LOOKUP_TABLE default
1
1
0
0
0
0
0
0
0
0
0
0
1
1
1
0
0
0
0
0
1
1
0
0
0
0
0
1
1
0
0
0
0
0
1
1
0
0
0
0
0
1
1
0
0
0
0
0
1
1
0
0
0
0
0
1
1
0
0
0
0
0
1
1
0
0
0
0
0
1
1
0
0
0
0
0
1
1
0
0
0
0
0
1
