# vtk DataFile Version 2.0 
Mesquite Mesh original_mesh 
ASCII 
DATASET UNSTRUCTURED_GRID 
POINTS 231 float 
-1 0 0
-1.1 0 0
-1.2 0 0
-1.3 0 0
-1.4 0 0
-1.5 0 0
-1.6 0 0
-1.7 0 0
-1.8 0 0
-1.9 0 0
-2 0 0

-0.987688 0.312869 0
-1.08646 0.344156 0
-1.18523 0.375443 0
-1.28399 0.40673 0
-1.38276 0.438017 0
-1.48153 0.469303 0
-1.5803 0.50059 0
-1.67907 0.531877 0
-1.77784 0.563164 0
-1.87661 0.594451 0
-1.97538 0.625738 0

-0.951057 0.618034 0
-1.04616 0.679837 0
-1.14127 0.741641 0
-1.23637 0.803444 0
-1.33148 0.865248 0
-1.42658 0.927051 0
-1.52169 0.988854 0
-1.6168 1.05066 0
-1.7119 1.11246 0
-1.80701 1.17426 0
-1.90211 1.23607 0

-0.891007 0.907981 0
-0.980107 0.998779 0
-1.06921 1.08958 0
-1.15831 1.18038 0
-1.24741 1.27117 0
-1.33651 1.36197 0
-1.42561 1.45277 0
-1.51471 1.54357 0
-1.60381 1.63437 0
-1.69291 1.72516 0
-1.78201 1.81596 0

-0.809017 1.17557 0
-0.889919 1.29313 0
-0.97082 1.41068 0
-1.05172 1.52824 0
-1.13262 1.6458 0
-1.21353 1.76336 0
-1.29443 1.88091 0
-1.37533 1.99847 0
-1.45623 2.11603 0
-1.53713 2.23358 0
-1.61803 2.35114 0

-0.707107 1.41421 0
-0.777817 1.55563 0
-0.848528 1.69706 0
-0.919239 1.83848 0
-0.989949 1.9799 0
-1.06066 2.12132 0
-1.13137 2.26274 0
-1.20208 2.40416 0
-1.27279 2.54558 0
-1.3435 2.68701 0
-1.41421 2.82843 0

-0.587785 1.61803 0
-0.646564 1.77984 0
-0.705342 1.94164 0
-0.764121 2.10344 0
-0.822899 2.26525 0
-0.881678 2.42705 0
-0.940456 2.58885 0
-0.999235 2.75066 0
-1.05801 2.91246 0
-1.11679 3.07426 0
-1.17557 3.23607 0

-0.45399 1.78201 0
-0.49939 1.96021 0
-0.544789 2.13842 0
-0.590188 2.31662 0
-0.635587 2.49482 0
-0.680986 2.67302 0
-0.726385 2.85122 0
-0.771784 3.02942 0
-0.817183 3.20762 0
-0.862582 3.38582 0
-0.907981 3.56403 0

-0.309017 1.90211 0
-0.339919 2.09232 0
-0.37082 2.28254 0
-0.401722 2.47275 0
-0.432624 2.66296 0
-0.463525 2.85317 0
-0.494427 3.04338 0
-0.525329 3.23359 0
-0.556231 3.4238 0
-0.587132 3.61401 0
-0.618034 3.80423 0

-0.156434 1.97538 0
-0.172078 2.17291 0
-0.187721 2.37045 0
-0.203365 2.56799 0
-0.219008 2.76553 0
-0.234652 2.96307 0
-0.250295 3.1606 0
-0.265939 3.35814 0
-0.281582 3.55568 0
-0.297225 3.75322 0
-0.312869 3.95075 0

5.55112e-17 2 0
5.55112e-17 2.2 0
5.55112e-17 2.4 0
1.11022e-16 2.6 0
1.66533e-16 2.8 0
1.11022e-16 3 0
1.11022e-16 3.2 0
5.55112e-17 3.4 0
1.11022e-16 3.6 0
1.66533e-16 3.8 0
1.11022e-16 4 0

0.156434 1.97538 0
0.172078 2.17291 0
0.187721 2.37045 0
0.203365 2.56799 0
0.219008 2.76553 0
0.234652 2.96307 0
0.250295 3.1606 0
0.265939 3.35814 0
0.281582 3.55568 0
0.297225 3.75322 0
0.312869 3.95075 0

0.309017 1.90211 0
0.339919 2.09232 0
0.37082 2.28254 0
0.401722 2.47275 0
0.432624 2.66296 0
0.463525 2.85317 0
0.494427 3.04338 0
0.525329 3.23359 0
0.556231 3.4238 0
0.587132 3.61401 0
0.618034 3.80423 0

0.45399 1.78201 0
0.49939 1.96021 0
0.544789 2.13842 0
0.590188 2.31662 0
0.635587 2.49482 0
0.680986 2.67302 0
0.726385 2.85122 0
0.771784 3.02942 0
0.817183 3.20762 0
0.862582 3.38582 0
0.907981 3.56403 0

0.587785 1.61803 0
0.646564 1.77984 0
0.705342 1.94164 0
0.764121 2.10344 0
0.822899 2.26525 0
0.881678 2.42705 0
0.940456 2.58885 0
0.999235 2.75066 0
1.05801 2.91246 0
1.11679 3.07426 0
1.17557 3.23607 0

0.707107 1.41421 0
0.777817 1.55563 0
0.848528 1.69706 0
0.919239 1.83848 0
0.989949 1.9799 0
1.06066 2.12132 0
1.13137 2.26274 0
1.20208 2.40416 0
1.27279 2.54558 0
1.3435 2.68701 0
1.41421 2.82843 0

0.809017 1.17557 0
0.889919 1.29313 0
0.97082 1.41068 0
1.05172 1.52824 0
1.13262 1.6458 0
1.21353 1.76336 0
1.29443 1.88091 0
1.37533 1.99847 0
1.45623 2.11603 0
1.53713 2.23358 0
1.61803 2.35114 0

0.891007 0.907981 0
0.980107 0.998779 0
1.06921 1.08958 0
1.15831 1.18038 0
1.24741 1.27117 0
1.33651 1.36197 0
1.42561 1.45277 0
1.51471 1.54357 0
1.60381 1.63437 0
1.69291 1.72516 0
1.78201 1.81596 0

0.951057 0.618034 0
1.04616 0.679837 0
1.14127 0.741641 0
1.23637 0.803444 0
1.33148 0.865248 0
1.42658 0.927051 0
1.52169 0.988854 0
1.6168 1.05066 0
1.7119 1.11246 0
1.80701 1.17426 0
1.90211 1.23607 0

0.987688 0.312869 0
1.08646 0.344156 0
1.18523 0.375443 0
1.28399 0.40673 0
1.38276 0.438017 0
1.48153 0.469303 0
1.5803 0.50059 0
1.67907 0.531877 0
1.77784 0.563164 0
1.87661 0.594451 0
1.97538 0.625738 0

1 0 0
1.1 0 0
1.2 0 0
1.3 0 0
1.4 0 0
1.5 0 0
1.6 0 0
1.7 0 0
1.8 0 0
1.9 0 0
2 0 0
CELLS 200 1000
4 0 11 12 1
4 1 12 13 2
4 2 13 14 3
4 3 14 15 4
4 4 15 16 5
4 5 16 17 6
4 6 17 18 7
4 7 18 19 8
4 8 19 20 9
4 9 20 21 10
4 11 22 23 12
4 12 23 24 13
4 13 24 25 14
4 14 25 26 15
4 15 26 27 16
4 16 27 28 17
4 17 28 29 18
4 18 29 30 19
4 19 30 31 20
4 20 31 32 21
4 22 33 34 23
4 23 34 35 24
4 24 35 36 25
4 25 36 37 26
4 26 37 38 27
4 27 38 39 28
4 28 39 40 29
4 29 40 41 30
4 30 41 42 31
4 31 42 43 32
4 33 44 45 34
4 34 45 46 35
4 35 46 47 36
4 36 47 48 37
4 37 48 49 38
4 38 49 50 39
4 39 50 51 40
4 40 51 52 41
4 41 52 53 42
4 42 53 54 43
4 44 55 56 45
4 45 56 57 46
4 46 57 58 47
4 47 58 59 48
4 48 59 60 49
4 49 60 61 50
4 50 61 62 51
4 51 62 63 52
4 52 63 64 53
4 53 64 65 54
4 55 66 67 56
4 56 67 68 57
4 57 68 69 58
4 58 69 70 59
4 59 70 71 60
4 60 71 72 61
4 61 72 73 62
4 62 73 74 63
4 63 74 75 64
4 64 75 76 65
4 66 77 78 67
4 67 78 79 68
4 68 79 80 69
4 69 80 81 70
4 70 81 82 71
4 71 82 83 72
4 72 83 84 73
4 73 84 85 74
4 74 85 86 75
4 75 86 87 76
4 77 88 89 78
4 78 89 90 79
4 79 90 91 80
4 80 91 92 81
4 81 92 93 82
4 82 93 94 83
4 83 94 95 84
4 84 95 96 85
4 85 96 97 86
4 86 97 98 87
4 88 99 100 89
4 89 100 101 90
4 90 101 102 91
4 91 102 103 92
4 92 103 104 93
4 93 104 105 94
4 94 105 106 95
4 95 106 107 96
4 96 107 108 97
4 97 108 109 98
4 99 110 111 100
4 100 111 112 101
4 101 112 113 102
4 102 113 114 103
4 103 114 115 104
4 104 115 116 105
4 105 116 117 106
4 106 117 118 107
4 107 118 119 108
4 108 119 120 109
4 110 121 122 111
4 111 122 123 112
4 112 123 124 113
4 113 124 125 114
4 114 125 126 115
4 115 126 127 116
4 116 127 128 117
4 117 128 129 118
4 118 129 130 119
4 119 130 131 120
4 121 132 133 122
4 122 133 134 123
4 123 134 135 124
4 124 135 136 125
4 125 136 137 126
4 126 137 138 127
4 127 138 139 128
4 128 139 140 129
4 129 140 141 130
4 130 141 142 131
4 132 143 144 133
4 133 144 145 134
4 134 145 146 135
4 135 146 147 136
4 136 147 148 137
4 137 148 149 138
4 138 149 150 139
4 139 150 151 140
4 140 151 152 141
4 141 152 153 142
4 143 154 155 144
4 144 155 156 145
4 145 156 157 146
4 146 157 158 147
4 147 158 159 148
4 148 159 160 149
4 149 160 161 150
4 150 161 162 151
4 151 162 163 152
4 152 163 164 153
4 154 165 166 155
4 155 166 167 156
4 156 167 168 157
4 157 168 169 158
4 158 169 170 159
4 159 170 171 160
4 160 171 172 161
4 161 172 173 162
4 162 173 174 163
4 163 174 175 164
4 165 176 177 166
4 166 177 178 167
4 167 178 179 168
4 168 179 180 169
4 169 180 181 170
4 170 181 182 171
4 171 182 183 172
4 172 183 184 173
4 173 184 185 174
4 174 185 186 175
4 176 187 188 177
4 177 188 189 178
4 178 189 190 179
4 179 190 191 180
4 180 191 192 181
4 181 192 193 182
4 182 193 194 183
4 183 194 195 184
4 184 195 196 185
4 185 196 197 186
4 187 198 199 188
4 188 199 200 189
4 189 200 201 190
4 190 201 202 191
4 191 202 203 192
4 192 203 204 193
4 193 204 205 194
4 194 205 206 195
4 195 206 207 196
4 196 207 208 197
4 198 209 210 199
4 199 210 211 200
4 200 211 212 201
4 201 212 213 202
4 202 213 214 203
4 203 214 215 204
4 204 215 216 205
4 205 216 217 206
4 206 217 218 207
4 207 218 219 208
4 209 220 221 210
4 210 221 222 211
4 211 222 223 212
4 212 223 224 213
4 213 224 225 214
4 214 225 226 215
4 215 226 227 216
4 216 227 228 217
4 217 228 229 218
4 218 229 230 219
CELL_TYPES 200
9
9
9
9
9
9
9
9
9
9
9
9
9
9
9
9
9
9
9
9
9
9
9
9
9
9
9
9
9
9
9
9
9
9
9
9
9
9
9
9
9
9
9
9
9
9
9
9
9
9
9
9
9
9
9
9
9
9
9
9
9
9
9
9
9
9
9
9
9
9
9
9
9
9
9
9
9
9
9
9
9
9
9
9
9
9
9
9
9
9
9
9
9
9
9
9
9
9
9
9
9
9
9
9
9
9
9
9
9
9
9
9
9
9
9
9
9
9
9
9
9
9
9
9
9
9
9
9
9
9
9
9
9
9
9
9
9
9
9
9
9
9
9
9
9
9
9
9
9
9
9
9
9
9
9
9
9
9
9
9
9
9
9
9
9
9
9
9
9
9
9
9
9
9
9
9
9
9
9
9
9
9
9
9
9
9
9
9
9
9
9
9
9
9
9
9
9
9
9
9
POINT_DATA 231
SCALARS fixed float 
LOOKUP_TABLE default 
1
1
1
1
1
1
1
1
1
1
1
1
0
0
0
0
0
0
0
0
0
1
1
0
0
0
0
0
0
0
0
0
1
1
0
0
0
0
0
0
0
0
0
1
1
0
0
0
0
0
0
0
0
0
1
1
0
0
0
0
0
0
0
0
0
1
1
0
0
0
0
0
0
0
0
0
1
1
0
0
0
0
0
0
0
0
0
1
1
0
0
0
0
0
0
0
0
0
1
1
0
0
0
0
0
0
0
0
0
1
1
0
0
0
0
0
0
0
0
0
1
1
0
0
0
0
0
0
0
0
0
1
1
0
0
0
0
0
0
0
0
0
1
1
0
0
0
0
0
0
0
0
0
1
1
0
0
0
0
0
0
0
0
0
1
1
0
0
0
0
0
0
0
0
0
1
1
0
0
0
0
0
0
0
0
0
1
1
0
0
0
0
0
0
0
0
0
1
1
0
0
0
0
0
0
0
0
0
1
1
0
0
0
0
0
0
0
0
0
1
1
1
1
1
1
1
1
1
1
1
1
