# vtk DataFile Version 2.0
Mesquite Mesh original_mesh .
ASCII
DATASET UNSTRUCTURED_GRID
POINTS 9 float
3.41506 -1.83013 7.74519
-0.915064 6.83013 5.24519
1.25 2.5 6.49519
-8.41506 1.83013 0.915064
-4.66506 4.33013 3.08013
-4.08494 -6.83013 3.41506
-6.25 -2.5 2.16506
-0.334936 -4.33013 5.58013
-3.39834 -1.63963 3.81147
CELLS 4 20
4 0 2 8 7 
4 2 1 4 8 
4 7 8 6 5 
4 8 4 3 6 
CELL_TYPES 4
9
9
9
9
POINT_DATA 9
SCALARS fixed float
LOOKUP_TABLE default
1
1
1
1
1
1
1
1
0
