# vtk DataFile Version 2.0
Mesquite Mesh original_mesh .
ASCII
DATASET UNSTRUCTURED_GRID
POINTS 9 float
5 -5 5
5 5 5
5 0 5
-5 5 5
0 5 5
-5 -5 5
-5 0 5
0 -5 5
-1.29541 -1.64058 5
CELLS 4 20
4 0 2 8 7 
4 2 1 4 8 
4 7 8 6 5 
4 8 4 3 6 
CELL_TYPES 4
9
9
9
9
POINT_DATA 9
SCALARS fixed float
LOOKUP_TABLE default
1
1
1
1
1
1
1
1
0
