# vtk DataFile Version 2.0 
Mesquite Mesh original_mesh 
ASCII 
DATASET UNSTRUCTURED_GRID 
POINTS 45 float 
0 0 0
0 0.25 0
0 0.5 0
0 0.75 0
0 1 0
0.25 0 0
0.25 0.25 0
0.25 0.5 0
0.25 0.75 0
0.25 1 0
0.375 0.333333 0
0.375 0.416666 0
0.5 0 0
0.5 0.25 0
0.5 0.333333 0
0.5 0.416666 0
0.5 0.5 0
0.5 0.75 0
0.5 1 0
0.583333 0.125 0
0.583333 0.25 0
0.583333 0.333333 0
0.583333 0.416666 0
0.583333 0.5 0
0.583333 0.625 0
0.666666 0.125 0
0.666666 0.25 0
0.666666 0.333333 0
0.666666 0.416666 0
0.666666 0.5 0
0.666666 0.625 0
0.75 0 0
0.75 0.25 0
0.75 0.333333 0
0.75 0.416666 0
0.75 0.5 0
0.75 0.75 0
0.75 1 0
0.875 0.333333 0
0.875 0.416666 0
1 0 0
1 0.25 0
1 0.5 0
1 0.75 0
1 1 0
CELLS 36 180
4 0 5 6 1
4 1 6 7 2
4 2 7 8 3
4 3 8 9 4
4 6 10 11 7
4 5 12 13 6
4 6 13 14 10
4 10 14 15 11
4 7 11 15 16
4 7 16 17 8
4 8 17 18 9
4 12 19 20 13
4 13 20 21 14
4 14 21 22 15
4 15 22 23 16
4 16 23 24 17
4 19 25 26 20
4 20 26 27 21
4 21 27 28 22
4 22 28 29 23
4 23 29 30 24
4 12 31 25 19
4 25 31 32 26
4 26 32 33 27
4 27 33 34 28
4 28 34 35 29
4 17 24 30 36
4 29 35 36 30
4 17 36 37 18
4 33 38 39 34
4 31 40 41 32
4 32 41 38 33
4 34 39 42 35
4 38 41 42 39
4 35 42 43 36
4 36 43 44 37
CELL_TYPES 36
9
9
9
9
9
9
9
9
9
9
9
9
9
9
9
9
9
9
9
9
9
9
9
9
9
9
9
9
9
9
9
9
9
9
9
9
POINT_DATA 45
SCALARS fixed float 
LOOKUP_TABLE default 
1
1
1
1
1
1
0
0
0
1
0
0
1
0
0
0
0
0
1
0
0
0
0
0
0
0
0
0
0
0
0
1
0
0
0
0
0
1
0
0
1
1
1
1
1
