# vtk DataFile Version 2.0 
Mesquite Mesh original_mesh 
ASCII 
DATASET UNSTRUCTURED_GRID 
POINTS 55 float 
-1 0 0
-1.25 0 0
-1.5 0 0
-1.75 0 0
-2 0 0
-0.951057 0.309017 0
-1.18882 0.54078 0
-1.42658 0.772542 0
-1.66435 1.00431 0
-1.90211 1.23607 0
-0.809017 0.587785 0
-1.01127 1.02862 0
-1.21353 1.46946 0
-1.41578 1.9103 0
-1.61803 2.35114 0
-0.587785 0.809017 0
-0.734732 1.41578 0
-0.881678 2.02254 0
-1.02862 2.62931 0
-1.17557 3.23607 0
-0.309017 0.951057 0
-0.386271 1.66435 0
-0.463525 2.37764 0
-0.54078 3.09093 0
-0.618034 3.80423 0
6.12303e-17 1 0
7.65447e-17 1.75 0
9.18319e-17 2.5 0
1.07173e-16 3.25 0
1.22461e-16 4 0
0.309017 0.951057 0
0.386271 1.66435 0
0.463525 2.37764 0
0.54078 3.09093 0
0.618034 3.80423 0
0.587785 0.809017 0
0.734732 1.41578 0
0.881678 2.02254 0
1.02862 2.62931 0
1.17557 3.23607 0
0.809017 0.587785 0
1.01127 1.02862 0
1.21353 1.46946 0
1.41578 1.9103 0
1.61803 2.35114 0
0.951057 0.309017 0
1.18882 0.54078 0
1.42658 0.772542 0
1.66435 1.00431 0
1.90211 1.23607 0
1 0 0
1.25 0 0
1.5 0 0
1.75 0 0
2 0 0
CELLS 40 200
4 0 5 6 1
4 1 6 7 2
4 2 7 8 3
4 3 8 9 4
4 5 10 11 6
4 6 11 12 7
4 7 12 13 8
4 8 13 14 9
4 10 15 16 11
4 11 16 17 12
4 12 17 18 13
4 13 18 19 14
4 15 20 21 16
4 16 21 22 17
4 17 22 23 18
4 18 23 24 19
4 20 25 26 21
4 21 26 27 22
4 22 27 28 23
4 23 28 29 24
4 25 30 31 26
4 26 31 32 27
4 27 32 33 28
4 28 33 34 29
4 30 35 36 31
4 31 36 37 32
4 32 37 38 33
4 33 38 39 34
4 35 40 41 36
4 36 41 42 37
4 37 42 43 38
4 38 43 44 39
4 40 45 46 41
4 41 46 47 42
4 42 47 48 43
4 43 48 49 44
4 45 50 51 46
4 46 51 52 47
4 47 52 53 48
4 48 53 54 49
CELL_TYPES 40
9
9
9
9
9
9
9
9
9
9
9
9
9
9
9
9
9
9
9
9
9
9
9
9
9
9
9
9
9
9
9
9
9
9
9
9
9
9
9
9
POINT_DATA 55
SCALARS fixed float 
LOOKUP_TABLE default 
1
1
1
1
1
1
0
0
0
1
1
0
0
0
1
1
0
0
0
1
1
0
0
0
1
1
0
0
0
1
1
0
0
0
1
1
0
0
0
1
1
0
0
0
1
1
0
0
0
1
1
1
1
1
1
