# vtk DataFile Version 2.0 
Mesquite Mesh original_mesh 
ASCII 
DATASET UNSTRUCTURED_GRID 
POINTS 41 float 
0 0 0
0 0.25 0
0 0.5 0
0 0.75 0
0 1 0
0.25 0 0
0.25 0.25 0
0.25 0.5 0
0.25 0.75 0
0.25 1 0
0.5 0 0
0.5 0.25 0
0.5 0.5 0
0.5 0.75 0
0.5 1 0
0.75 0 0
0.75 0.25 0
0.75 0.5 0
0.75 0.75 0
0.75 1 0
1 0 0
1 0.25 0
1 0.5 0
1 0.75 0
1 1 0
0.63 0.8333 0
0.63 0.9166 0
0.75 0.8333 0
0.75 0.9166 0
0.8333 0.63 0
0.8333 0.75 0
0.8333 0.8333 0
0.8333 0.9166 0
0.8333 1 0
0.9166 0.63 0
0.9166 0.75 0
0.9166 0.8333 0
0.9166 0.9166 0
0.9166 1 0
1 0.8333 0
1 0.9166 0
CELLS 30 80
4 0 5 6 1
4 1 6 7 2
4 2 7 8 3
4 3 8 9 4
4 5 10 11 6
4 6 11 12 7
4 7 12 13 8
4 8 13 14 9
4 10 15 16 11
4 11 16 17 12
4 12 17 18 13
4 13 25 26 14
4 13 18 27 25
4 25 27 28 26
4 26 28 19 14
4 15 20 21 16
4 16 21 22 17
4 17 29 30 18
4 18 30 31 27
4 27 31 32 28
4 28 32 33 19
4 17 22 34 29
4 29 34 35 30
4 30 35 36 31
4 31 36 37 32
4 32 37 38 33
4 34 22 23 35
4 35 23 39 36
4 36 39 40 37
4 37 40 24 38
CELL_TYPES 30
9
9
9
9
9
9
9
9
9
9
9
9
9
9
9
9
9
9
9
9
9
9
9
9
9
9
9
9
9
9
POINT_DATA 41
SCALARS fixed float 
LOOKUP_TABLE default 
1
1
1
1
1
1
0
0
0
1
1
0
0
0
1
1
0
0
0
1
1
1
1
1
1
0
0
0
0
0
0
0
0
1
0
0
0
0
1
1
1
