# vtk DataFile Version 2.0
Mesquite Mesh
ASCII
DATASET UNSTRUCTURED_GRID
POINTS 73 float
0 0 0
0.143 0 0
0.286 0 0
0.429 0 0
0.571 0 0
0.714 0 0
0.857 0 0
1 0 0
0 0.05 0
0.143 0.05 0
0.286 0.05 0
0.429 0.05 0
0.571 0.05 0
0.714 0.05 0
0.857 0.05 0
1 0.05 0
0 0.1 0
0.143 0.1 0
0.286 0.1 0
0.429 0.1 0
0.571 0.1 0
0.714 0.1 0
0.857 0.1 0
1 0.1 0
0 0.15 0
0.143 0.15 0
0.286 0.15 0
0.429 0.15 0
0.571 0.15 0
0.714 0.15 0
0.857 0.15 0
1 0.15 0
0 0.2 0
0.143 0.2 0
0.286 0.2 0
0.429 0.2 0
0.571 0.2 0
0.714 0.2 0
0.857 0.2 0
1 0.2 0
0 0.4 0
0.143 0.4 0
0.286 0.4 0
0.429 0.4 0
0.571 0.4 0
0.714 0.4 0
0.857 0.4 0
1 0.4 0
0 0.6 0
0.143 0.6 0
0.286 0.6 0
0.429 0.6 0
0.571 0.6 0
0.714 0.6 0
0.857 0.6 0
1 0.6 0
0 0.8 0
0.143 0.8 0
0.286 0.8 0
0.429 0.8 0
0.571 0.8 0
0.714 0.8 0
0.857 0.8 0
1 0.8 0
0 1 0
0.143 1 0
0.286 1 0
0.429 1 0
0.571 1 0
0.714 1 0
0.857 1 0
1 1 0
0.214 0.9 0
CELLS 65 309
4 0 1 9 8
4 1 2 10 9
4 2 3 11 10
4 3 4 12 11
4 4 5 13 12
4 5 6 14 13
4 6 7 15 14
4 8 9 17 16
4 9 10 18 17
4 10 11 19 18
4 11 12 20 19
4 12 13 21 20
4 13 14 22 21
4 14 15 23 22
4 16 17 25 24
4 17 18 26 25
4 18 19 27 26
4 19 20 28 27
4 20 21 29 28
4 21 22 30 29
4 22 23 31 30
4 24 25 33 32
4 25 26 34 33
4 26 27 35 34
4 27 28 36 35
4 28 29 37 36
4 29 30 38 37
4 30 31 39 38
3 32 33 40
3 41 40 33
4 33 34 42 41
4 34 35 43 42
4 35 36 44 43
4 36 37 45 44
4 37 38 46 45
4 38 39 47 46
4 40 41 49 48
4 41 42 50 49
4 42 43 51 50
3 43 44 51
3 52 51 44
3 53 52 44
3 44 45 53
4 45 46 54 53
4 46 47 55 54
4 48 49 57 56
4 49 50 58 57
4 50 51 59 58
3 60 59 51
3 51 52 60
3 52 53 60
3 61 60 53
4 53 54 62 61
3 63 62 54
3 54 55 63
4 56 57 65 64
3 65 57 72
3 57 58 72
3 58 66 72
3 66 65 72
4 58 59 67 66
4 59 60 68 67
4 60 61 69 68
4 61 62 70 69
4 62 63 71 70
CELL_TYPES 65
9
9
9
9
9
9
9
9
9
9
9
9
9
9
9
9
9
9
9
9
9
9
9
9
9
9
9
9
5
5
9
9
9
9
9
9
9
9
9
5
5
5
5
9
9
9
9
9
5
5
5
5
9
5
5
9
5
5
5
5
9
9
9
9
9
POINT_DATA 73
SCALARS fixed bit
LOOKUP_TABLE default
1
1
1
1
1
1
1
1
1
0
0
0
0
0
0
1
1
0
0
0
0
0
0
1
1
0
0
0
0
0
0
1
1
0
0
0
0
0
0
1
1
0
0
0
0
0
0
1
1
0
0
0
0
0
0
1
1
0
0
0
0
0
0
1
1
1
1
1
1
1
1
1
0
