# vtk DataFile Version 2.0
Mesquite Mesh original_mesh .
ASCII
DATASET UNSTRUCTURED_GRID
POINTS 40 float
5 -5 5
5 5 5
5 -3 5
5 -1 5
5 1 5
5 3 5
-5 5 5
3 5 5
1 5 5
-1 5 5
-3 5 5
-5 -5 5
-5 3 5
-5 1 5
-5 -1 5
-5 -3 5
-3 -5 5
-1 -5 5
1 -5 5
3 -5 5
3.52237 -3.82339 5
2.63581 -2.14464 5
3.04451 -0.796907 5
2.83676 2.83118 5
3.03311 2.9391 5
-0.529411 4.40635 5
-2.57696 3.41757 5
-5.50907 2.89129 5
-3.96547 -0.260513 5
-4.96598 -0.984127 5
-2.09594 -2.29155 5
1.15175 -3.31063 5
2.53245 -3.25055 5
1.25027 0.104344 5
1.29733 2.72832 5
0.0701527 1.9432 5
-2.45974 2.10209 5
-1.48109 -3.20778 5
-3.67043 -2.22437 5
2.40097 -1.92949 5
CELLS 58 232
3 0 2 20 
3 20 2 21 
3 21 2 3 
3 3 4 22 
3 22 4 23 
3 23 4 5 
3 5 1 24 
3 24 1 7 
3 7 8 24 
3 8 9 25 
3 25 9 26 
3 26 9 10 
3 10 6 27 
3 27 6 12 
3 12 13 27 
3 13 14 28 
3 28 14 29 
3 29 14 15 
3 15 11 30 
3 30 11 16 
3 16 17 30 
3 17 18 31 
3 31 18 32 
3 32 18 19 
3 19 0 20 
3 20 21 32 
3 32 19 20 
3 21 3 22 
3 22 23 33 
3 33 23 34 
3 34 23 24 
3 23 5 24 
3 24 8 34 
3 8 25 34 
3 25 26 35 
3 35 26 36 
3 36 26 27 
3 26 10 27 
3 27 13 36 
3 13 28 36 
3 28 29 37 
3 37 29 38 
3 38 29 30 
3 29 15 30 
3 30 17 38 
3 17 31 38 
3 31 32 39 
3 39 32 21 
3 21 22 39 
3 22 33 39 
3 33 34 35 
3 34 25 35 
3 35 36 37 
3 36 28 37 
3 37 38 39 
3 38 31 39 
3 39 33 37 
3 33 35 37 
CELL_TYPES 58
5
5
5
5
5
5
5
5
5
5
5
5
5
5
5
5
5
5
5
5
5
5
5
5
5
5
5
5
5
5
5
5
5
5
5
5
5
5
5
5
5
5
5
5
5
5
5
5
5
5
5
5
5
5
5
5
5
5
POINT_DATA 40
SCALARS fixed float
LOOKUP_TABLE default
1
1
1
1
1
1
1
1
1
1
1
1
1
1
1
1
1
1
1
1
0
0
0
0
0
0
0
0
0
0
0
0
0
0
0
0
0
0
0
0
