# vtk DataFile Version 3.0
MOAB 3.99 (Alpha)
ASCII
DATASET UNSTRUCTURED_GRID
POINTS 1869 double
-11.5 -5 -1.666666667
-11.5 -3 -1.666666667
-9.524389108 -3.004740069 -1.666666667
-9.5 -5 -1.666666667
-11.5 -5 -5
-11.5 -3 -5
-9.524389108 -3.004740069 -5
-9.5 -5 -5
-11.5 -4 -1.666666667
-10.51219455 -3.002370034 -1.666666667
-9.512194554 -4.002370034 -1.666666667
-10.5 -5 -1.666666667
-11.5 -5 -3.333333333
-11.5 -3 -3.333333333
-9.524389108 -3.004740069 -3.333333333
-9.5 -5 -3.333333333
-11.5 -4 -5
-10.51219455 -3.002370034 -5
-9.512194554 -4.002370034 -5
-10.5 -5 -5
-10.50609728 -4.001185017 -3.333333333
-10.50609728 -4.001185017 -1.666666667
-10.50609728 -4.001185017 -5
-10.5 -5 -3.333333333
-10.51219455 -3.002370034 -3.333333333
-11.5 -4 -3.333333333
-9.512194554 -4.002370034 -3.333333333
-11.5 -1 -1.666666667
-9.526313098 -1.00760025 -1.666666667
-11.5 -1 -5
-9.526313098 -1.00760025 -5
-11.5 -2 -1.666666667
-10.51315655 -1.003800125 -1.666666667
-9.525351103 -2.006170159 -1.666666667
-11.5 -1 -3.333333333
-9.526313098 -1.00760025 -3.333333333
-11.5 -2 -5
-10.51315655 -1.003800125 -5
-9.525351103 -2.006170159 -5
-10.51267555 -2.00308508 -3.333333333
-10.51267555 -2.00308508 -1.666666667
-10.51267555 -2.00308508 -5
-10.51315655 -1.003800125 -3.333333333
-11.5 -2 -3.333333333
-9.525351103 -2.006170159 -3.333333333
-11.5 1 -1.666666667
-9.522050012 0.993769564 -1.666666667
-11.5 1 -5
-9.023715012 1.254862564 -5
-11.5 0 -1.666666667
-10.51102501 0.996884782 -1.666666667
-9.524181555 -0.006915342814 -1.666666667
-11.5 1 -3.333333333
-9.522050012 0.993769564 -3.333333333
-11.5 0 -5
-10.51102501 0.996884782 -5
-9.524181555 -0.006915342814 -5
-10.55361869 -0.02521542141 -3.333333333
-10.51209078 -0.003457671407 -1.666666667
-10.63667453 -0.06873092141 -5
-10.51102501 0.996884782 -3.333333333
-11.5 5.551115123e-17 -3.333333333
-9.524181555 -0.006915342814 -3.333333333
-11.5 3 -1.666666667
-9.517013693 2.996609306 -1.666666667
-11.5 3 -5
-9.517013693 2.996609306 -5
-11.5 2 -1.666666667
-10.50850685 2.998304653 -1.666666667
-9.519531853 1.995189435 -1.666666667
-11.5 3 -3.333333333
-9.517013693 2.996609306 -3.333333333
-11.5 2 -5
-10.50850685 2.998304653 -5
-9.519531853 1.995189435 -5
-10.55129384 1.975836967 -3.333333333
-10.50976593 1.997594717 -1.666666667
-10.63434968 1.932321467 -5
-10.50850685 2.998304653 -3.333333333
-11.5 2 -3.333333333
-9.519531853 1.995189435 -3.333333333
-11.5 5 -1.666666667
-9.5 5 -1.666666667
-11.5 5 -5
-9.5 5 -5
-11.5 4 -1.666666667
-10.5 5 -1.666666667
-9.508506846 3.998304653 -1.666666667
-11.5 5 -3.333333333
-9.5 5 -3.333333333
-11.5 4 -5
-10.5 5 -5
-9.508506846 3.998304653 -5
-10.50425342 3.999152326 -3.333333333
-10.50425342 3.999152326 -1.666666667
-10.50425342 3.999152326 -5
-10.5 5 -3.333333333
-11.5 4 -3.333333333
-9.508506846 3.998304653 -3.333333333
11.5 5 -1.666666667
11.5 3 -1.666666667
9.56311464 3.006271277 -1.666666667
9.5 5 -1.666666667
11.5 5 -5
11.5 3 -5
9.56311464 3.006271277 -5
9.5 5 -5
11.5 4 -1.666666667
10.53155732 3.003135638 -1.666666667
9.53155732 4.003135638 -1.666666667
10.5 5 -1.666666667
11.5 5 -3.333333333
11.5 3 -3.333333333
9.56311464 3.006271277 -3.333333333
9.5 5 -3.333333333
11.5 4 -5
10.53155732 3.003135638 -5
9.53155732 4.003135638 -5
10.5 5 -5
10.51577866 4.001567819 -3.333333333
10.51577866 4.001567819 -1.666666667
10.51577866 4.001567819 -5
10.5 5 -3.333333333
10.53155732 3.003135638 -3.333333333
11.5 4 -3.333333333
9.53155732 4.003135638 -3.333333333
11.5 1 -1.666666667
9.597831834 1.011192269 -1.666666667
11.5 1 -5
9.597831834 1.011192269 -5
11.5 2 -1.666666667
10.54891592 1.005596135 -1.666666667
9.580473237 2.008731773 -1.666666667
11.5 1 -3.333333333
9.597831834 1.011192269 -3.333333333
11.5 2 -5
10.54891592 1.005596135 -5
9.580473237 2.008731773 -5
10.54023662 2.004365887 -3.333333333
10.54023662 2.004365887 -1.666666667
10.54023662 2.004365887 -5
10.54891592 1.005596135 -3.333333333
11.5 2 -3.333333333
9.580473237 2.008731773 -3.333333333
11.5 -1 -1.666666667
9.588527488 -0.9878931208 -1.666666667
11.5 -1 -5
9.588527488 -0.9878931208 -5
11.5 0 -1.666666667
10.54426374 -0.9939465604 -1.666666667
9.593179661 0.01164957418 -1.666666667
11.5 -1 -3.333333333
9.588527488 -0.9878931208 -3.333333333
11.5 0 -5
10.54426374 -0.9939465604 -5
9.593179661 0.01164957418 -5
10.54658983 0.005824787088 -3.333333333
10.54658983 0.005824787088 -1.666666667
10.54658983 0.005824787088 -5
10.54426374 -0.9939465604 -3.333333333
11.5 -5.551115123e-17 -3.333333333
9.593179661 0.01164957418 -3.333333333
11.5 -3 -1.666666667
9.550141927 -2.991866559 -1.666666667
11.5 -3 -5
9.550141927 -2.991866559 -5
11.5 -2 -1.666666667
10.52507096 -2.995933279 -1.666666667
9.569334708 -1.98987984 -1.666666667
11.5 -3 -3.333333333
9.550141927 -2.991866559 -3.333333333
11.5 -2 -5
10.52507096 -2.995933279 -5
9.569334708 -1.98987984 -5
10.53466735 -1.99493992 -3.333333333
10.53466735 -1.99493992 -1.666666667
10.53466735 -1.99493992 -5
10.52507096 -2.995933279 -3.333333333
11.5 -2 -3.333333333
9.569334708 -1.98987984 -3.333333333
11.5 -5 -1.666666667
9.5 -5 -1.666666667
11.5 -5 -5
9.938995 -5 -5
11.5 -4 -1.666666667
10.5 -5 -1.666666667
9.525070964 -3.995933279 -1.666666667
11.5 -5 -3.333333333
9.5 -5 -3.333333333
11.5 -4 -5
10.5 -5 -5
9.525070964 -3.995933279 -5
10.43936965 -3.99796664 -3.333333333
10.51253548 -3.99796664 -1.666666667
10.40278673 -3.99796664 -5
10.39025125 -5 -3.333333333
11.5 -4 -3.333333333
9.525070964 -3.995933279 -3.333333333
-7.5 5 -1.666666667
-7.536563955 2.990592154 -1.666666667
-7.5 5 -5
-7.243025955 2.529114154 -5
-8.5 5 -1.666666667
-7.518281978 3.995296077 -1.666666667
-8.526788824 2.99360073 -1.666666667
-7.5 5 -3.333333333
-7.536563955 2.990592154 -3.333333333
-8.5 5 -5
-7.518281978 3.995296077 -5
-8.526788824 2.99360073 -5
-8.537855912 4.035256865 -3.333333333
-8.513394412 3.996800365 -1.666666667
-8.586778912 4.112169865 -5
-7.518281978 3.995296077 -3.333333333
-8.5 5 -3.333333333
-8.526788824 2.99360073 -3.333333333
-5.5 5 -1.666666667
-5.570403546 2.978481238 -1.666666667
-5.5 5 -5
-5.570403546 2.978481238 -5
-6.5 5 -1.666666667
-5.535201773 3.989240619 -1.666666667
-6.553483751 2.984536696 -1.666666667
-5.5 5 -3.333333333
-5.570403546 2.978481238 -3.333333333
-6.5 5 -5
-5.535201773 3.989240619 -5
-6.553483751 2.984536696 -5
-6.551203375 4.030724848 -3.333333333
-6.526741875 3.992268348 -1.666666667
-6.600126375 4.107637848 -5
-5.535201773 3.989240619 -3.333333333
-6.5 5 -3.333333333
-6.553483751 2.984536696 -3.333333333
-3.5 5 -1.666666667
-3.738227563 2.98018612 -1.666666667
-3.5 5 -5
-3.738227563 2.98018612 -5
-4.5 5 -1.666666667
-3.619113782 3.99009306 -1.666666667
-4.654315555 2.979333679 -1.666666667
-3.5 5 -3.333333333
-3.738227563 2.98018612 -3.333333333
-4.5 5 -5
-3.619113782 3.99009306 -5
-4.654315555 2.979333679 -5
-4.577157777 3.98966684 -3.333333333
-4.577157777 3.98966684 -1.666666667
-4.577157777 3.98966684 -5
-3.619113782 3.99009306 -3.333333333
-4.5 5 -3.333333333
-4.654315555 2.979333679 -3.333333333
-1.5 5 -1.666666667
-2.194300076 2.995308601 -1.666666667
-1.5 5 -5
-2.194300076 2.995308601 -5
-2.5 5 -1.666666667
-1.847150038 3.9976543 -1.666666667
-2.96626382 2.987747361 -1.666666667
-1.5 5 -3.333333333
-2.194300076 2.995308601 -3.333333333
-2.5 5 -5
-1.847150038 3.9976543 -5
-2.96626382 2.987747361 -5
-2.73313191 3.99387368 -3.333333333
-2.73313191 3.99387368 -1.666666667
-2.73313191 3.99387368 -5
-1.847150038 3.9976543 -3.333333333
-2.5 5 -3.333333333
-2.96626382 2.987747361 -3.333333333
1.110223025e-16 3.5 -1.666666667
-1.452653262 1.022518494 -1.666666667
9.184850994e-17 3.5 -5
-1.452653262 1.022518494 -5
-1.060660172 3.939339828 -1.666666667
-0.726326631 2.261259247 -1.666666667
-1.823476669 2.008913548 -1.666666667
1.014354062e-16 3.5 -3.333333333
-1.452653262 1.022518494 -3.333333333
-1.060660172 3.939339828 -5
-0.726326631 2.261259247 -5
-1.823476669 2.008913548 -5
-1.44206842 2.974126688 -3.333333333
-1.44206842 2.974126688 -1.666666667
-1.44206842 2.974126688 -5
-0.726326631 2.261259247 -3.333333333
-1.060660172 3.939339828 -3.333333333
-1.823476669 2.008913548 -3.333333333
1.2670939 1.156922944 -1.666666667
0.4148815279 -0.8627073829 -1.666666667
1.4891949 0.9716759436 -5
0.4148815279 -0.8627073829 -5
0.6335469501 2.328461472 -1.666666667
0.8409877141 0.1471077803 -1.666666667
-0.518885867 0.0799055557 -1.666666667
1.2670939 1.156922944 -3.333333333
0.4148815279 -0.8627073829 -3.333333333
0.6335469501 2.328461472 -5
0.8409877141 0.1471077803 -5
-0.518885867 0.0799055557 -5
0.03882212488 1.219620764 -3.333333333
0.05733054155 1.204183514 -1.666666667
0.001805291548 1.250495264 -5
0.8409877141 0.1471077803 -3.333333333
0.6335469501 2.328461472 -3.333333333
-0.518885867 0.0799055557 -3.333333333
1.5 5 -1.666666667
2.459252544 2.426639265 -1.666666667
1.5 5 -5
2.459252544 2.426639265 -5
1.060660172 3.939339828 -1.666666667
1.979626272 3.713319632 -1.666666667
1.863173222 1.791781104 -1.666666667
1.5 5 -3.333333333
2.459252544 2.426639265 -3.333333333
1.060660172 3.939339828 -5
1.979626272 3.713319632 -5
1.863173222 1.791781104 -5
1.44340828 2.880997716 -3.333333333
1.461916697 2.865560466 -1.666666667
1.406391447 2.911872216 -5
1.979626272 3.713319632 -3.333333333
1.060660172 3.939339828 -3.333333333
1.863173222 1.791781104 -3.333333333
3.5 5 -1.666666667
4.03967603 2.855864156 -1.666666667
3.5 5 -5
4.03967603 2.855864156 -5
2.5 5 -1.666666667
3.769838015 3.927932078 -1.666666667
3.249464287 2.64125171 -1.666666667
3.5 5 -3.333333333
4.03967603 2.855864156 -3.333333333
2.5 5 -5
3.769838015 3.927932078 -5
3.249464287 2.64125171 -5
2.874732144 3.820625855 -3.333333333
2.874732144 3.820625855 -1.666666667
2.874732144 3.820625855 -5
3.769838015 3.927932078 -3.333333333
2.5 5 -3.333333333
3.249464287 2.64125171 -3.333333333
5.5 5 -1.666666667
5.784928608 2.98229405 -1.666666667
5.5 5 -5
5.784928608 2.98229405 -5
4.5 5 -1.666666667
5.642464304 3.991147025 -1.666666667
4.912302319 2.919079103 -1.666666667
5.5 5 -3.333333333
[...]
POINT_DATA 1869
SCALARS fixed int 1
LOOKUP_TABLE default
1 
1 
0 
1 
1 
1 
1 
1 
1 
0 
0 
1 
1 
1 
0 
1 
1 
1 
1 
1 
0 
0 
1 
1 
0 
1 
0 
1 
0 
1 
1 
1 
0 
0 
1 
0 
1 
1 
1 
0 
0 
1 
0 
1 
0 
1 
0 
1 
1 
1 
0 
0 
1 
0 
1 
1 
1 
0 
0 
1 
0 
1 
0 
1 
0 
1 
1 
1 
0 
0 
1 
0 
1 
1 
1 
0 
0 
1 
0 
1 
0 
1 
1 
1 
1 
1 
1 
0 
1 
1 
1 
1 
1 
0 
0 
1 
1 
1 
0 
1 
1 
0 
1 
1 
1 
1 
1 
1 
0 
0 
1 
1 
1 
0 
1 
1 
1 
1 
1 
0 
0 
1 
1 
0 
1 
0 
1 
0 
1 
1 
1 
0 
0 
1 
0 
1 
1 
1 
0 
0 
1 
0 
1 
0 
1 
0 
1 
1 
1 
0 
0 
1 
0 
1 
1 
1 
0 
0 
1 
0 
1 
0 
1 
0 
1 
1 
1 
0 
0 
1 
0 
1 
1 
1 
0 
0 
1 
0 
1 
0 
1 
1 
1 
1 
1 
1 
0 
1 
1 
1 
1 
1 
0 
0 
1 
1 
1 
0 
1 
0 
1 
1 
1 
0 
0 
1 
0 
1 
1 
1 
0 
0 
1 
0 
1 
0 
1 
0 
1 
1 
1 
0 
0 
1 
0 
1 
1 
1 
0 
0 
1 
0 
1 
0 
1 
0 
1 
1 
1 
0 
0 
1 
0 
1 
1 
1 
0 
0 
1 
0 
1 
0 
1 
0 
1 
1 
1 
0 
0 
1 
0 
1 
1 
1 
0 
0 
1 
0 
1 
0 
1 
0 
1 
1 
1 
0 
0 
1 
0 
1 
1 
1 
0 
0 
1 
0 
1 
0 
0 
0 
1 
1 
0 
0 
0 
0 
0 
1 
1 
1 
0 
0 
1 
0 
0 
0 
1 
0 
1 
1 
1 
0 
0 
1 
0 
1 
1 
1 
0 
0 
1 
0 
1 
0 
1 
0 
1 
1 
1 
0 
0 
1 
0 
1 
1 
1 
0 
0 
1 
0 
1 
0 
1 
0 
1 
1 
1 
0 
0 
1 
0 
1 
1 
1 
0 
0 
1 
0 
1 
0 
1 
0 
1 
1 
1 
0 
0 
1 
0 
1 
1 
1 
0 
0 
1 
0 
1 
0 
1 
0 
1 
1 
0 
0 
1 
1 
0 
1 
0 
1 
1 
1 
0 
0 
1 
0 
1 
1 
1 
0 
0 
1 
0 
1 
0 
1 
0 
1 
1 
1 
0 
0 
1 
0 
1 
1 
1 
0 
0 
1 
0 
1 
0 
1 
0 
1 
1 
1 
0 
0 
1 
0 
1 
1 
1 
0 
0 
1 
0 
1 
0 
1 
0 
1 
1 
1 
0 
0 
1 
0 
1 
1 
1 
0 
0 
1 
0 
1 
0 
1 
1 
1 
0 
0 
1 
1 
1 
1 
0 
0 
1 
0 
1 
0 
1 
0 
0 
1 
1 
1 
1 
0 
0 
0 
1 
0 
0 
1 
1 
1 
1 
0 
0 
1 
0 
0 
1 
0 
1 
0 
1 
1 
1 
0 
0 
1 
0 
1 
1 
1 
0 
0 
1 
0 
1 
0 
1 
0 
1 
1 
1 
0 
0 
1 
0 
1 
1 
1 
0 
0 
1 
0 
1 
0 
1 
0 
1 
1 
1 
0 
0 
1 
0 
1 
1 
1 
0 
0 
1 
0 
1 
0 
1 
0 
1 
1 
0 
0 
1 
1 
0 
0 
1 
0 
0 
0 
1 
1 
0 
0 
1 
0 
0 
0 
1 
0 
0 
0 
1 
1 
0 
0 
1 
0 
0 
0 
1 
0 
0 
0 
1 
1 
0 
0 
1 
0 
0 
0 
1 
0 
0 
0 
1 
1 
0 
0 
1 
0 
0 
0 
1 
0 
0 
0 
1 
1 
0 
0 
1 
0 
0 
0 
1 
0 
0 
0 
1 
1 
0 
0 
1 
0 
0 
0 
0 
1 
1 
0 
0 
0 
0 
0 
1 
1 
1 
0 
0 
1 
0 
0 
0 
0 
1 
0 
0 
0 
1 
1 
0 
0 
1 
0 
0 
0 
1 
0 
0 
1 
0 
0 
1 
0 
0 
1 
0 
0 
1 
0 
0 
0 
1 
1 
0 
0 
1 
0 
0 
0 
1 
0 
0 
0 
1 
1 
0 
0 
1 
0 
0 
0 
1 
0 
0 
0 
1 
1 
0 
0 
1 
0 
0 
0 
1 
0 
0 
0 
1 
1 
0 
0 
1 
0 
0 
0 
1 
0 
0 
0 
1 
1 
0 
0 
1 
0 
0 
0 
1 
0 
0 
1 
0 
0 
1 
0 
0 
1 
0 
0 
1 
0 
0 
1 
0 
0 
1 
0 
0 
1 
0 
0 
0 
1 
1 
0 
0 
1 
0 
0 
0 
1 
0 
0 
1 
0 
0 
0 
1 
0 
0 
1 
0 
1 
0 
0 
1 
0 
0 
1 
0 
0 
1 
0 
0 
1 
0 
0 
1 
0 
0 
0 
1 
1 
1 
0 
1 
1 
0 
0 
1 
1 
1 
0 
1 
0 
0 
1 
0 
1 
0 
1 
0 
1 
0 
0 
1 
0 
0 
0 
0 
1 
0 
1 
0 
1 
0 
0 
1 
0 
0 
0 
0 
1 
0 
1 
0 
1 
0 
0 
1 
0 
0 
0 
0 
1 
0 
1 
1 
1 
1 
0 
1 
1 
0 
0 
1 
1 
0 
1 
1 
0 
1 
1 
0 
0 
1 
1 
1 
0 
1 
0 
0 
1 
0 
1 
0 
1 
0 
1 
0 
0 
1 
0 
0 
0 
0 
1 
0 
1 
0 
1 
0 
0 
1 
0 
0 
0 
0 
1 
0 
1 
0 
1 
0 
0 
1 
0 
0 
0 
0 
1 
0 
1 
1 
1 
1 
0 
1 
1 
0 
0 
1 
1 
0 
1 
0 
1 
0 
0 
1 
0 
0 
0 
0 
1 
0 
1 
0 
1 
0 
0 
1 
0 
0 
0 
0 
1 
0 
1 
0 
1 
0 
0 
1 
0 
0 
0 
0 
1 
0 
1 
0 
1 
0 
0 
1 
0 
0 
0 
0 
1 
0 
1 
0 
1 
0 
0 
1 
0 
0 
0 
0 
1 
0 
0 
0 
0 
0 
0 
0 
0 
0 
0 
0 
0 
0 
1 
0 
1 
0 
0 
1 
0 
0 
0 
0 
1 
0 
1 
0 
1 
0 
0 
1 
0 
0 
0 
0 
1 
0 
1 
0 
1 
0 
0 
1 
0 
0 
0 
0 
1 
0 
1 
0 
1 
0 
0 
1 
0 
0 
0 
0 
1 
0 
1 
0 
0 
0 
1 
0 
1 
0 
1 
0 
0 
1 
0 
0 
0 
0 
1 
0 
1 
0 
1 
0 
0 
1 
0 
0 
0 
0 
1 
0 
1 
0 
1 
0 
0 
1 
0 
0 
0 
0 
1 
0 
1 
0 
1 
0 
0 
1 
0 
0 
0 
0 
1 
0 
1 
1 
0 
0 
1 
0 
0 
0 
1 
0 
1 
0 
0 
1 
0 
0 
0 
1 
0 
0 
0 
0 
0 
0 
1 
0 
1 
0 
1 
0 
0 
1 
0 
0 
0 
0 
1 
0 
1 
0 
1 
0 
0 
1 
0 
0 
0 
0 
1 
0 
1 
0 
1 
0 
0 
1 
0 
0 
0 
0 
1 
0 
1 
0 
0 
0 
1 
0 
0 
0 
0 
0 
0 
0 
0 
0 
0 
0 
0 
0 
0 
0 
0 
0 
0 
0 
0 
0 
0 
0 
0 
0 
0 
0 
0 
0 
0 
0 
0 
0 
0 
0 
0 
0 
0 
0 
0 
0 
0 
0 
0 
0 
0 
0 
0 
0 
0 
0 
0 
0 
0 
0 
0 
0 
0 
0 
0 
0 
0 
0 
0 
0 
0 
0 
0 
0 
0 
0 
0 
0 
0 
0 
0 
0 
0 
0 
0 
0 
0 
0 
0 
0 
0 
0 
0 
0 
0 
0 
0 
0 
0 
0 
0 
0 
0 
0 
0 
0 
0 
0 
0 
0 
0 
0 
0 
0 
0 
0 
0 
0 
0 
0 
0 
0 
0 
0 
0 
0 
0 
0 
0 
0 
0 
0 
0 
0 
0 
0 
0 
0 
0 
0 
0 
0 
0 
0 
0 
0 
0 
0 
0 
0 
0 
0 
0 
0 
0 
0 
0 
0 
0 
0 
0 
0 
0 
0 
0 
0 
1 
1 
1 
1 
1 
1 
1 
1 
1 
1 
0 
1 
0 
1 
1 
0 
1 
0 
1 
1 
1 
1 
1 
1 
0 
0 
1 
0 
1 
0 
1 
1 
1 
1 
1 
1 
0 
0 
1 
0 
1 
0 
1 
1 
1 
1 
1 
1 
0 
0 
1 
0 
1 
0 
1 
1 
1 
1 
1 
1 
1 
0 
1 
1 
1 
0 
1 
1 
1 
1 
1 
1 
1 
1 
1 
1 
0 
1 
0 
1 
1 
0 
1 
0 
1 
1 
1 
1 
1 
1 
0 
0 
1 
0 
1 
0 
1 
1 
1 
1 
1 
1 
0 
0 
1 
0 
1 
0 
1 
1 
1 
1 
1 
1 
0 
0 
1 
0 
1 
0 
1 
1 
1 
1 
1 
1 
1 
0 
1 
1 
1 
0 
1 
1 
1 
1 
1 
1 
0 
0 
1 
0 
1 
0 
1 
1 
1 
1 
1 
1 
0 
0 
1 
0 
1 
0 
1 
1 
1 
1 
1 
1 
0 
0 
1 
0 
1 
0 
1 
1 
1 
1 
1 
1 
0 
0 
1 
0 
1 
0 
1 
1 
1 
1 
1 
1 
0 
0 
1 
0 
1 
0 
1 
1 
1 
1 
1 
0 
0 
0 
1 
0 
0 
0 
1 
1 
1 
1 
1 
1 
0 
0 
1 
0 
1 
0 
1 
1 
1 
1 
1 
1 
0 
0 
1 
0 
1 
0 
1 
1 
1 
1 
1 
1 
0 
0 
1 
0 
1 
0 
1 
1 
1 
1 
1 
1 
0 
0 
1 
0 
1 
0 
1 
1 
0 
1 
1 
0 
1 
1 
1 
1 
1 
1 
0 
0 
1 
0 
1 
0 
1 
1 
1 
1 
1 
1 
0 
0 
1 
0 
1 
0 
1 
1 
1 
1 
1 
1 
0 
0 
1 
0 
1 
0 
1 
1 
1 
1 
1 
1 
0 
0 
1 
0 
1 
0 
1 
1 
1 
1 
1 
0 
1 
0 
1 
0 
1 
1 
1 
1 
1 
1 
1 
1 
0 
0 
0 
1 
0 
0 
1 
0 
1 
1 
1 
1 
1 
1 
0 
0 
1 
0 
1 
0 
1 
1 
1 
1 
1 
1 
0 
0 
1 
0 
1 
0 
1 
1 
1 
1 
1 
1 
0 
0 
1 
0 
1 
0 
1 
1 
0 
1 
1 
0 
1 
1 
1 
0 
0 
1 
0 
0 
1 
1 
1 
0 
0 
1 
0 
0 
1 
1 
1 
0 
0 
1 
0 
0 
1 
1 
1 
0 
0 
1 
0 
0 
1 
1 
1 
0 
0 
1 
0 
0 
1 
1 
1 
0 
0 
1 
0 
0 
1 
1 
1 
1 
1 
0 
0 
0 
1 
0 
0 
0 
1 
1 
1 
0 
0 
1 
0 
0 
1 
0 
1 
0 
1 
0 
1 
0 
1 
1 
1 
0 
0 
1 
0 
0 
1 
1 
1 
0 
0 
1 
0 
0 
1 
1 
1 
0 
0 
1 
0 
0 
1 
1 
1 
0 
0 
1 
0 
0 
1 
1 
1 
0 
0 
1 
0 
0 
1 
0 
1 
0 
1 
0 
1 
0 
1 
0 
1 
0 
1 
0 
1 
0 
1 
1 
0 
1 
0 
0 
1 
0 
1 
0 
0 
1 
0 
1 
1 
0 
1 
0 
1 
0 
1 
0 
1 
0 
1 
0 
0 
1 
CELL_DATA 174
SCALARS GLOBAL_ID int 1
LOOKUP_TABLE default
1 
2 
3 
4 
5 
6 
7 
8 
9 
10 
11 
12 
13 
14 
15 
16 
17 
18 
19 
20 
21 
22 
23 
24 
25 
26 
27 
28 
29 
30 
31 
32 
33 
34 
35 
36 
37 
38 
39 
40 
41 
42 
43 
44 
45 
46 
47 
48 
49 
50 
51 
52 
53 
54 
55 
56 
57 
58 
59 
60 
61 
62 
63 
64 
65 
66 
67 
68 
69 
70 
71 
72 
73 
74 
75 
76 
77 
78 
79 
80 
81 
82 
83 
84 
85 
86 
87 
88 
89 
90 
91 
92 
93 
94 
95 
96 
97 
98 
99 
100 
101 
102 
103 
104 
105 
106 
107 
108 
109 
110 
111 
112 
113 
114 
115 
116 
117 
118 
119 
120 
121 
122 
123 
124 
125 
126 
127 
128 
129 
130 
131 
132 
133 
134 
135 
136 
137 
138 
139 
140 
141 
142 
143 
144 
145 
146 
147 
148 
149 
150 
151 
152 
153 
154 
155 
156 
157 
158 
159 
160 
161 
162 
163 
164 
165 
166 
167 
168 
169 
170 
171 
172 
173 
174 
