# vtk DataFile Version 2.0
Hand-coded 9-quad patch
ASCII
DATASET UNSTRUCTURED_GRID
POINTS 16 float
-3  3  0
-1  3  0
 1  3  0
 3  3  0
-3  1  0
-1  1  0
 1  1  0
 3  1  0
-3 -1  0
-1 -1  0
 1 -1  0
 3 -1  0
-3 -3  0
-1 -3  0
 1 -3  0
 3 -3  0
CELLS 9 45
4  1  0  4  5
4  2  1  5  6
4  3  2  6  7
4  5  4  8  9
4  6  5  9 10
4  7  6 10 11
4  9  8 12 13
4 10  9 13 14
4 11 10 14 15
CELL_TYPES 9
9
9
9
9
9
9
9
9
9
POINT_DATA 16
SCALARS fixed bit
LOOKUP_TABLE default
1
1
1
1
1
0
0
1
1
0
0
1
1
1
1
1
