# vtk DataFile Version 2.0
Hand-coded 9-quad patch
ASCII
DATASET UNSTRUCTURED_GRID
POINTS 40 float
-3.0  3.0  0
-1.0  3.0  0
 1.0  3.0  0
 3.0  3.0  0
-3.0  1.0  0
-1.0  1.0  0
 1.0  1.0  0
 3.0  1.0  0
-3.0 -1.0  0
-1.0 -1.0  0
 1.0 -1.0  0
 3.0 -1.0  0
-3.0 -3.0  0
-1.0 -3.0  0
 1.0 -3.0  0
 3.0 -3.0  0
-2.0  3.0  0
 0.0  3.0  0
 2.0  3.0  0
-3.0  2.0  0
-1.0  2.0  0
 1.0  2.0  0
 3.0  2.0  0
-2.0  1.0  0
 0.0  1.0  0
 2.0  1.0  0
-3.0  0.0  0
-1.0  0.0  0
 1.0  0.0  0
 3.0  0.0  0
-2.0 -1.0  0
 0.0 -1.0  0
 2.0 -1.0  0
-3.0 -2.0  0
-1.0 -2.0  0
 1.0 -2.0  0
 3.0 -2.0  0
-2.0 -3.0  0
 0.0 -3.0  0
 2.0 -3.0  0
CELLS 9 81
8  1  0  4  5 16 19 23 20
8  2  1  5  6 17 20 24 21
8  3  2  6  7 18 21 25 22
8  5  4  8  9 23 26 30 27
8  6  5  9 10 24 27 31 28
8  7  6 10 11 25 28 32 29
8  9  8 12 13 30 33 37 34
8 10  9 13 14 31 34 38 35
8 11 10 14 15 32 35 39 36
CELL_TYPES 9
23
23
23
23
23
23
23
23
23
POINT_DATA 40
SCALARS fixed bit
LOOKUP_TABLE default
1
1
1
1
1
0
0
1
1
0
0
1
1
1
1
1
1
1
1
1
0
0
1
0
0
0
1
0
0
1
0
0
0
1
0
0
1
1
1
1
