# vtk DataFile Version 3.0
MOAB 3.99 (Alpha)
ASCII
DATASET UNSTRUCTURED_GRID
POINTS 260 double
0.0  0.0  0  
1.0  0.0  0  
1.5  1.75  0  
2.5  3.75  0  
4.0  3.0  0  
5.0  0.0  0  
10.0  0.0  0  
11.0  3.0  0  
12.5  3.5  0  
13.5  1.75  0  
14.0  0.0  0  
19.0  0.0  0  
19.0  9.0  0  
18.0  9.0  0  
17.0  6.0  0  
15.5  5.25  0  
14.5  7.25  0  
14.0  9.0  0  
10.0  9.0  0  
9.0  6.0  0  
7.5  5.25  0  
6.5  7.25  0  
6.0  9.0  0  
5.0  9.0  0  
4.0  6.0  0  
3.0  5.0  0  
2.0  6.0  0  
1.0  9.0  0  
0.0  9.0  0  
9.109375  3.90625  0  
11.0909090909  5.22727272727  0  
16.775761395  4.57347720993  0  
19.0  4.5  0  
15.1208964646  3.1452020202  0  
16.3914447397  3.1815178244  0  
16.6527832368  1.59782395082  0  
10.332111437  6.38929618768  0  
16.5  0.0  0  
12.0  9.0  0  
0.0  4.5  0  
4.875  7.375  0  
5.75  5.625  0  
4.59375  4.5  0  
6.56933008982  2.85048652695  0  
6.01570444018  4.19523085315  0  
13.3790322581  5.43951612903  0  
10.41886116991581024  1.5  0  
9.81605113636  4.99289772727  0  
13.7760435797  3.06845347414  0  
15.25  0.925740969685  0  
17.75  0.686692048319  0  
14.6899994507  2.00665180051  0  
9.5811388300841898  7.5  0  
11.0317162236  7.7804729607  0  
12.7498355389  7.41047934123  0  
11.7230473166  6.46881496189  0  
0.0  2.25  0  
1.14285714286  3.17857142857  0  
1.41964285714  4.69047619048  0  
7.66107407347  3.80728566357  0  
7.5  0.0  0  
7.94281713358  2.38454603563  0  
5.21956859505  1.80658643651  0  
6.82880720704  1.3580316862  0  
8.2521364997  1.0937152972  0  
14.4979738405  5.99898692024  0  
12.2876769471  4.76518621764  0  
9.4046148619  2.47191418967  0  
14.3536635165  4.38393946502  0  
0.0  6.75  0  
1.41886116991581024  7.5  0  
18.2823507173  2.68014218952  0  
17.8666969237  3.89548170987  0  
19.0  6.75  0  
17.5811388300841898  7.5  0  
18.28125  5.625  0  
0.5  0.0  0  
1.23223304703363112  0.875  0  
0.75  0.875  0  
8.8283756808  1.78281474344  0  
9.37606824985  1.2968576486  0  
9.95230743095  1.98595709483  0  
13.0644338985  6.42499773513  0  
12.2364414277  6.93964715156  0  
12.5510397873  5.95416554546  0  
0.571428571429  2.71428571429  0  
0.75  2.0  0  
1.32142857143  2.46428571429  0  
5.30472722009  4.34761542658  0  
5.88285222009  4.91011542658  0  
5.171875  5.0625  0  
18.6411753586  3.59007109476  0  
18.6411753586  1.34007109476  0  
19.0  2.25  0  
2.75  4.375  0  
2.20982142857  4.84523809524  0  
1.95982142857  4.22023809524  0  
3.3  3.91  0  
4.296875  3.75  0  
3.546875  4.125  0  
3.796875  4.75  0  
15.8868398507  2.37151298551  0  
16.5221139882  2.38967088761  0  
15.7561706022  3.1633599223  0  
7.2560736117  2.61751628129  0  
6.69906864843  2.10425910657  0  
7.38581217031  1.87128886091  0  
2.4  5.36  0  
1.70982142857  5.34523809524  0  
0.75  8.25  0  
0.0  7.875  0  
0.75  7.125  0  
0.0  1.125  0  
18.25  8.25  0  
18.5  9.0  0  
17.8027756377319946  8.25  0  
15.6713913438  1.80223787566  0  
14.9054479577  2.57592691035  0  
5.3125  6.5  0  
4.4375  6.6875  0  
4.875  5.8125  0  
6.8819660112501051  6.25  0  
6.125  6.4375  0  
6.625  5.4375  0  
10.7115102639  5.80828445748  0  
11.4069782037  5.84804384458  0  
11.0275793768  6.42905557479  0  
4.9375  8.1875  0  
5.4375  8.1875  0  
5.5  9.0  0  
15.875  0.462870484843  0  
16.5763916184  0.79891197541  0  
15.9513916184  1.26178246025  0  
17.3368977285  2.93083000696  0  
17.467566977  2.13898307017  0  
6.75785222009  4.72261542658  0  
17.2013916184  1.14225799957  0  
17.125  0.343346024159  0  
8.3046875  4.578125  0  
7.58053703673  4.52864283179  0  
8.38522453673  3.85676783179  0  
10.4534801136  5.11008522727  0  
10.0740812867  5.69109695748  0  
10.4080255682  3.99644886364  0  
11.0454545455  4.11363636364  0  
10.202307431  2.73595709483  0  
10.0546875  3.453125  0  
9.25699493095  3.18908209483  0  
14.4258186785  5.19146319263  0  
14.9268317583  4.81696973251  0  
14.9989869202  5.62449346012  0  
9.0546875  4.953125  0  
8.3  5.09  0  
14.4484700222  3.10682774717  0  
14.2330215152  2.53755263732  0  
5.6875  7.3125  0  
13.1726039399558574  2.625  0  
13.6380217899  2.40922673707  0  
13.1380217899  3.28422673707  0  
10.5158581118  8.39023648035  0  
11.5158581118  8.39023648035  0  
11.0  9.0  0  
14.625  0.462870484843  0  
15.25  0.0  0  
18.0745238205  3.28781194969  0  
18.4333484619  4.19774085493  0  
4.296875  5.25  0  
3.6  5.36  0  
12.3938384736  4.13259310882  0  
11.6438384736  3.88259310882  0  
11.7  3.91  0  
13.3749177694  8.20523967062  0  
13.6249177694  7.33023967062  0  
14.23223304703363112  8.125  0  
9.40802556818  5.49644886364  0  
9.46271306818  4.44957386364  0  
0.0  5.625  0  
0.709821428571  4.59523809524  0  
0.709821428571  5.72023809524  0  
11.8907758812  7.59547615097  0  
12.3749177694  8.20523967062  0  
17.1290708317  3.53849976713  0  
15.9483289298  3.85933961507  0  
16.5836030674  3.87749751716  0  
17.3212291594  4.2344794599  0  
18.0739734619  4.76024085493  0  
17.5285056975  5.09923860497  0  
16.1378806975  4.91173860497  0  
15.3104482323  4.1976010101  0  
4.5811388300841898  7.5  0  
17.640625  5.8125  0  
17.890625  6.5625  0  
17.3228756555322954  6.75  0  
16.8878806975  5.28673860497  0  
16.3  5.09  0  
14.0648535481  3.72619646958  0  
13.4268317583  3.94196973251  0  
13.9385030493  5.71925152463  0  
13.8663478873  4.91172779703  0  
6.23223304703363112  8.125  0  
8.67371599774  2.42823011265  0  
8.52609606679  3.14539801782  0  
5.28466504491  2.92524326347  0  
6.292517265  3.52285869005  0  
5.00785222009  3.59761542658  0  
9.91605571848  6.94464809384  0  
10.6819138303  7.08488457419  0  
10.2658581118  7.64023648035  0  
7.11520208164  3.32888609526  0  
6.83838925682  4.00125825836  0  
13.0  9.0  0  
11.689293019  4.99622947246  0  
7.80194560353  3.0959158496  0  
5.91440360352  0.679015843098  0  
6.25  0.0  0  
7.16440360352  0.679015843098  0  
9.3228756555322954  6.75  0  
9.66605571848  6.19464809384  0  
14.0949997254  1.87832590025  0  
14.7372799906  3.76457074261  0  
13.7677669529663689  0.875  0  
14.375  1.33787048484  0  
17.75  0.0  0  
18.375  0.343346024159  0  
18.0161753586  1.68341711892  0  
14.9699997254  1.4661963851  0  
11.3773817701  7.1246439613  0  
13.6239046897  6.70473313073  0  
9.8027756377319946  8.25  0  
12.0053621319  5.61700058977  0  
1.8819660112501051  2.75  0  
1.82142857143  3.46428571429  0  
1.28125  3.93452380952  0  
0.0  3.375  0  
0.571428571429  3.83928571429  0  
1.0  6.375  0  
7.87606824985  0.546857648602  0  
7.54047185337  1.2258734917  0  
4.60978429753  2.40329321825  0  
5.89444934244  2.32853648173  0  
8.09747681664  1.73913066642  0  
4.5811388300841898  1.5  0  
5.10978429753  0.903293218254  0  
6.02418790105  1.58230906135  0  
9.12606824985  0.546857648602  0  
8.75  0.0  0  
10.19722436226800544  0.75  0  
14.8819660112501051  6.25  0  
14.4989869202  6.62449346012  0  
13.3206702318  4.57456284133  0  
12.8333546026  5.10235117334  0  
10.67712434446770464  2.25  0  
1.19722436226800544  8.25  0  
0.5  9.0  0  
1.67712434446770464  6.75  0  
18.640625  5.0625  0  
18.640625  6.1875  0  
18.25  7.125  0  
19.0  7.875  0  
19.0  5.625  0  
CELLS 109 763
6 0  1  2  76  77  78  
6 67  64  46  79  80  81  
6 45  54  55  82  83  84  
6 57  56  2  85  86  87  
6 42  44  41  88  89  90  
6 32  71  11  91  92  93  
6 3  25  58  94  95  96  
6 3  4  42  97  98  99  
6 25  3  42  94  99  100  
6 33  35  34  101  102  103  
6 61  43  63  104  105  106  
6 58  25  26  95  107  108  
6 70  28  69  109  110  111  
6 56  0  2  112  78  86  
6 74  12  13  113  114  115  
6 51  35  33  116  101  117  
6 41  40  24  118  119  120  
6 20  21  41  121  122  123  
6 36  30  55  124  125  126  
6 23  40  22  127  128  129  
6 49  37  35  130  131  132  
6 71  34  35  133  102  134  
6 20  41  44  123  89  135  
6 50  35  37  136  131  137  
6 29  20  59  138  139  140  
6 47  30  36  141  124  142  
6 30  47  7  141  143  144  
6 67  7  29  145  146  147  
6 65  68  15  148  149  150  
6 20  29  19  138  151  152  
6 33  48  51  153  154  117  
6 40  41  21  118  122  155  
6 8  9  48  156  157  158  
6 18  53  38  159  160  161  
6 37  49  10  130  162  163  
6 72  71  32  164  91  165  
6 25  42  24  100  166  167  
6 8  66  7  168  169  170  
6 17  54  16  171  172  173  
6 47  19  29  174  151  175  
6 69  39  58  176  177  178  
6 53  54  38  179  180  160  
6 72  34  71  181  133  164  
6 31  33  34  182  103  183  
6 31  72  75  184  185  186  
6 31  15  33  187  188  182  
6 23  24  40  189  119  127  
6 14  75  74  190  191  192  
6 31  14  15  193  194  187  
6 48  68  8  195  196  158  
6 65  45  68  197  198  148  
6 22  40  21  128  155  199  
6 24  42  41  166  90  120  
6 61  67  29  200  147  201  
6 4  43  44  202  203  204  
6 52  36  53  205  206  207  
6 4  44  42  204  88  98  
6 44  43  59  203  208  209  
6 54  17  38  171  210  180  
6 7  66  30  169  211  144  
6 59  43  61  208  104  212  
6 63  5  60  213  214  215  
6 7  47  29  143  175  146  
6 52  19  36  216  217  205  
6 51  48  9  154  157  218  
6 33  15  68  188  149  219  
6 9  10  49  220  162  221  
6 37  11  50  222  223  137  
6 35  50  71  136  224  134  
6 9  49  51  221  225  218  
6 35  51  49  116  225  132  
6 53  36  55  206  126  226  
6 47  36  19  142  217  174  
6 65  54  45  227  82  197  
6 18  52  53  228  207  159  
6 55  30  66  125  211  229  
6 53  55  54  226  83  179  
6 57  2  3  87  230  231  
6 58  57  3  232  231  96  
6 39  56  57  233  85  234  
6 69  58  26  178  108  235  
6 57  58  39  232  177  234  
6 44  59  20  209  139  135  
6 63  60  64  215  236  237  
6 4  62  43  238  239  202  
6 61  29  59  201  140  212  
6 64  67  61  79  200  240  
6 64  61  63  240  106  237  
6 4  5  62  241  242  238  
6 43  62  63  239  243  105  
6 5  63  62  213  243  242  
6 6  64  60  244  236  245  
6 64  6  46  244  246  80  
6 15  16  65  247  248  150  
6 54  65  16  227  248  172  
6 68  66  8  249  168  196  
6 55  66  45  229  250  84  
6 7  67  46  145  81  251  
6 68  45  66  198  250  249  
6 33  68  48  219  195  153  
6 28  70  27  109  252  253  
6 11  71  50  92  224  223  
6 69  26  70  235  254  111  
6 72  32  75  165  255  185  
6 34  72  31  181  184  183  
6 75  73  74  256  257  191  
6 75  14  31  190  193  186  
6 12  74  73  113  257  258  
6 32  73  75  259  256  255  
CELL_TYPES 109
22
22
22
22
22
22
22
22
22
22
22
22
22
22
22
22
22
22
22
22
22
22
22
22
22
22
22
22
22
22
22
22
22
22
22
22
22
22
22
22
22
22
22
22
22
22
22
22
22
22
22
22
22
22
22
22
22
22
22
22
22
22
22
22
22
22
22
22
22
22
22
22
22
22
22
22
22
22
22
22
22
22
22
22
22
22
22
22
22
22
22
22
22
22
22
22
22
22
22
22
22
22
22
22
22
22
22
22
22
POINT_DATA 260
SCALARS fixed int 1
LOOKUP_TABLE default
1 
1 
1 
1 
1 
1 
1 
1 
1 
1 
1 
1 
1 
1 
1 
1 
1 
1 
1 
1 
1 
1 
1 
1 
1 
1 
1 
1 
1 
0 
0 
0 
1 
0 
0 
0 
0 
1 
1 
1 
0 
0 
0 
0 
0 
0 
1 
0 
0 
0 
0 
0 
1 
0 
0 
0 
1 
0 
0 
0 
1 
0 
0 
0 
0 
0 
0 
0 
0 
1 
1 
0 
0 
1 
1 
0 
1 
1 
0 
0 
0 
0 
0 
0 
0 
0 
0 
0 
0 
0 
0 
0 
0 
1 
0 
0 
0 
1 
0 
0 
0 
0 
0 
0 
0 
0 
0 
1 
0 
0 
1 
0 
1 
0 
1 
1 
0 
0 
0 
0 
0 
1 
0 
0 
0 
0 
0 
0 
0 
1 
0 
0 
0 
0 
0 
0 
0 
0 
0 
0 
0 
0 
0 
0 
0 
0 
0 
0 
0 
0 
0 
0 
1 
0 
0 
0 
1 
0 
0 
0 
0 
1 
0 
1 
0 
0 
0 
1 
0 
0 
1 
0 
0 
1 
0 
0 
1 
0 
0 
0 
0 
0 
0 
0 
0 
0 
0 
0 
0 
1 
0 
0 
1 
0 
1 
0 
0 
0 
0 
1 
0 
0 
0 
0 
0 
0 
0 
0 
0 
0 
1 
0 
0 
0 
1 
0 
1 
0 
0 
0 
1 
0 
1 
0 
0 
0 
0 
0 
1 
0 
1 
0 
0 
1 
0 
0 
0 
0 
0 
0 
0 
1 
0 
0 
0 
1 
1 
1 
0 
0 
0 
1 
1 
1 
1 
0 
0 
0 
1 
1 
