# vtk DataFile Version 3.0
MOAB Version 1.01
ASCII
DATASET UNSTRUCTURED_GRID
POINTS 23 double
-0.3839745962 0.5 0
-0.3839745962 -0.5 0
-0.1919872981 -0.5 0
-0.1919872981 0.5 0
-0.25 0 0
-0.2879809472 -0.5 0
-0.1919872981 0 0
-0.2879809472 0.5 0
0 -0.5 0
0 0.5 0
-0.09599364905 -0.5 0
0 0 0
-0.09599364905 0.5 0
0.1919872981 -0.5 0
0.1919872981 0.5 0
0.09599364905 -0.5 0
0.1919872981 0 0
0.09599364905 0.5 0
0.3839745962 -0.5 0
0.3839745962 0.5 0
0.2879809472 -0.5 0
0.25 0 0
0.2879809472 0.5 0
CELLS 4 36
8 0 1 2 3 4 5 6 7
8 3 2 8 9 6 10 11 12
8 9 8 13 14 11 15 16 17
8 14 13 18 19 16 20 21 22
CELL_TYPES 4
23
23
23
23
POINT_DATA 23
SCALARS fixed int 1
LOOKUP_TABLE default
1 
1 
1 
1 
1 
1 
0 
1 
1 
1 
1 
0 
1 
1 
1 
1 
0 
1 
1 
1 
1 
1 
1 
