# vtk DataFile Version 2.0
Mesquite Mesh original_mesh .
ASCII
DATASET UNSTRUCTURED_GRID
POINTS 129 float
5 -5 5
5 5 5
5 -2.5 5
5 0 5
5 2.5 5
-5 5 5
2.5 5 5
0 5 5
-2.5 5 5
-5 -5 5
-5 2.5 5
-5 0 5
-5 -2.5 5
-2.5 -5 5
0 -5 5
2.5 -5 5
2.83015 -0.722885 5
2.63495 1.67589 5
0.720594 2.8281 5
-1.66749 2.6594 5
-2.79297 0.708514 5
-2.65797 -1.65798 5
-0.706051 -2.82385 5
1.66248 -2.64588 5
0.00275893 -0.00298672 5
5 5 -5
5 -5 -5
5 2.5 -5
5 0 -5
5 -2.5 -5
-5 -5 -5
2.5 -5 -5
0 -5 -5
-2.5 -5 -5
-5 5 -5
-5 -2.5 -5
-5 0 -5
-5 2.5 -5
-2.5 5 -5
0 5 -5
2.5 5 -5
2.83015 0.722885 -5
2.63495 -1.67589 -5
0.720594 -2.8281 -5
-1.66749 -2.6594 -5
-2.79297 -0.708514 -5
-2.65797 1.65798 -5
-0.706051 2.82385 -5
1.66248 2.64588 -5
0.00275893 0.00298672 -5
-5 -5 2.5
-5 -5 0
-5 -5 -2.5
5 -5 2.5
5 -5 0
5 -5 -2.5
-2.83015 -5 0.722885
-2.63495 -5 -1.67589
-0.720594 -5 -2.8281
1.66749 -5 -2.6594
2.79297 -5 -0.708514
2.65797 -5 1.65798
0.706051 -5 2.82385
-1.66248 -5 2.64588
-0.00275893 -5 0.00298672
-5 5 2.5
-5 5 0
-5 5 -2.5
-5 2.83015 0.722885
-5 2.63495 -1.67589
-5 0.720594 -2.8281
-5 -1.66749 -2.6594
-5 -2.79297 -0.708514
-5 -2.65797 1.65798
-5 -0.706051 2.82385
-5 1.66248 2.64588
-5 0.00275893 0.00298672
5 5 2.5
5 5 0
5 5 -2.5
2.83015 5 0.722885
2.63495 5 -1.67589
0.720594 5 -2.8281
-1.66749 5 -2.6594
-2.79297 5 -0.708514
-2.65797 5 1.65798
-0.706051 5 2.82385
1.66248 5 2.64588
0.00275893 5 0.00298672
5 -2.83015 0.722885
5 -2.63495 -1.67589
5 -0.720594 -2.8281
5 1.66749 -2.6594
5 2.79297 -0.708514
5 2.65797 1.65798
5 0.706051 2.82385
5 -1.66248 2.64588
5 -0.00275893 0.00298672
0.724458 4.08557 -1.26208
-0.632903 1.54847 -1.25921
4.56389 4.52284 -2.03177
3.22948 2.27433 -3.35109
1.9471 -0.405874 0.828098
3.38513 2.48283 -0.176764
0.589333 3.52514 1.18435
0.0223029 1.7329 -2.55479
-2.19521 1.09051 -1.2689
2.06364 -3.36347 2.77172
-3.18196 2.71873 1.72917
-2.52023 1.78658 1.83257
-2.46393 -2.02564 -2.09985
-4.15791 -2.65241 3.16117
-3.30558 -2.49381 -3.06121
-2.34023 -0.954214 -0.819521
-3.06086 -2.63408 -1.32207
-2.9534 -0.838956 -3.94677
0.186539 -1.13932 -3.8388
2.6734 -1.87563 0.718936
2.68818 1.36811 -1.20192
-3.45702 -1.37288 2.32888
-0.250859 -4.39108 1.13999
1.69112 0.402563 -3.63499
1.08743 0.643823 2.6502
-0.166716 0.954724 2.40823
0.291374 -3.83192 2.67762
1.21961 0.275412 1.49438
2.16811 -3.07738 -3.17756
4.26195 3.05831 2.77136
0.521743 2.49878 3.74786
CELLS 408 2040
4 95 17 3 4 
4 88 98 99 82 
4 98 82 100 101 
4 98 102 103 104 
4 98 99 105 102 
4 98 99 82 105 
4 105 101 82 98 
4 48 105 101 82 
4 47 105 83 106 
4 90 60 55 54 
4 107 2 23 15 
4 99 105 83 82 
4 108 106 84 99 
4 106 38 46 37 
4 107 23 2 16 
4 109 108 84 104 
4 98 99 102 104 
4 99 108 102 104 
4 33 110 58 44 
4 111 21 74 12 
4 30 33 35 52 
4 112 110 113 114 
4 112 113 70 71 
4 110 115 44 112 
4 116 110 115 44 
4 112 36 71 70 
4 112 110 33 44 
4 112 35 71 36 
4 27 79 40 100 
4 98 81 100 82 
4 100 93 78 80 
4 117 90 89 60 
4 98 100 103 101 
4 100 103 93 80 
4 100 101 27 92 
4 101 103 92 100 
4 118 101 103 92 
4 100 93 79 78 
4 99 113 102 108 
4 119 120 113 102 
4 114 119 120 113 
4 102 105 121 115 
4 99 105 102 115 
4 102 113 115 120 
4 122 102 120 123 
4 123 122 124 120 
4 102 109 119 123 
4 102 117 118 125 
4 117 107 125 102 
4 62 23 22 14 
4 98 102 121 118 
4 102 107 125 122 
4 106 70 69 37 
4 43 44 32 58 
4 58 44 32 33 
4 110 120 115 113 
4 110 52 72 112 
4 112 115 44 45 
4 58 116 44 110 
4 110 58 57 33 
4 121 42 126 116 
4 111 50 13 12 
4 111 22 124 21 
4 111 119 73 74 
4 67 34 38 37 
4 56 73 51 50 
4 111 63 22 13 
4 118 97 91 92 
4 127 122 104 125 
4 127 95 94 4 
4 127 87 18 6 
4 127 4 77 6 
4 104 88 84 85 
4 127 122 125 17 
4 127 18 128 17 
4 80 94 78 77 
4 120 122 124 107 
4 124 23 122 24 
4 111 124 120 123 
4 82 39 48 47 
4 96 2 3 16 
4 111 124 123 21 
4 124 120 62 63 
4 107 102 120 122 
4 127 128 122 17 
4 16 17 95 125 
4 77 6 4 1 
4 125 17 95 127 
4 122 123 128 104 
4 122 128 24 17 
4 123 128 19 24 
4 115 49 44 45 
4 119 21 74 111 
4 20 21 74 119 
4 117 96 107 89 
4 122 123 24 128 
4 123 102 104 122 
4 111 119 120 114 
4 124 122 123 24 
4 124 123 21 24 
4 99 106 115 113 
4 99 106 105 115 
4 105 48 121 49 
4 105 49 115 46 
4 106 105 115 46 
4 126 116 58 120 
4 112 35 45 44 
4 104 123 128 109 
4 102 104 122 125 
4 102 120 123 119 
4 123 19 128 109 
4 128 86 104 109 
4 128 104 86 87 
4 117 90 126 118 
4 107 120 102 117 
4 126 121 102 118 
4 121 101 41 48 
4 120 102 117 126 
4 12 11 21 74 
4 87 7 18 6 
4 91 121 126 118 
4 91 121 101 41 
4 121 42 116 49 
4 57 110 52 72 
4 55 31 29 26 
4 99 115 102 113 
4 102 120 115 116 
4 102 121 116 115 
4 106 115 113 70 
4 70 115 112 45 
4 109 10 20 19 
4 115 116 44 49 
4 104 109 85 84 
4 99 106 84 83 
4 31 126 43 59 
4 126 31 55 59 
4 117 60 126 90 
4 126 118 90 91 
4 109 19 8 10 
4 43 59 32 31 
4 126 91 90 29 
4 55 126 60 90 
4 117 125 97 118 
4 117 107 96 125 
4 107 120 61 62 
4 117 107 120 60 
4 89 61 54 53 
4 60 61 54 89 
4 107 15 53 2 
4 16 125 107 122 
4 107 96 53 89 
4 85 109 68 84 
4 65 109 68 85 
4 109 75 20 10 
4 109 65 10 8 
4 109 86 85 8 
4 123 109 20 19 
4 68 85 66 65 
4 100 92 27 79 
4 101 118 91 92 
4 41 92 28 27 
4 111 123 119 21 
4 100 103 92 93 
4 101 40 82 100 
4 100 40 82 81 
4 127 122 128 104 
4 127 125 103 94 
4 125 103 94 97 
4 102 117 126 118 
4 107 62 61 15 
4 126 43 116 42 
4 102 104 125 103 
4 102 125 118 103 
4 124 107 122 23 
4 101 40 27 48 
4 119 76 73 74 
4 124 107 62 120 
4 121 116 115 49 
4 119 114 73 76 
4 119 114 76 113 
4 111 119 114 73 
4 119 75 108 76 
4 109 119 75 108 
4 110 114 120 113 
4 120 56 114 57 
4 112 114 113 71 
4 114 113 71 76 
4 111 56 114 120 
4 114 110 120 57 
4 117 89 97 96 
4 103 118 92 97 
4 108 84 104 99 
4 127 125 104 103 
4 17 122 125 16 
4 104 88 86 87 
4 106 84 83 67 
4 108 109 119 102 
4 106 113 108 69 
4 128 86 19 18 
4 119 76 74 75 
4 108 113 76 69 
4 125 118 103 97 
4 98 80 88 104 
4 98 102 105 121 
4 105 121 48 101 
4 42 91 121 126 
4 110 116 115 120 
4 103 97 93 94 
4 100 80 98 103 
4 109 104 102 108 
4 111 120 124 63 
4 114 76 71 72 
4 98 105 101 121 
4 96 95 16 3 
4 45 46 36 70 
4 99 106 113 108 
4 99 84 104 88 
4 108 68 84 69 
4 59 126 43 58 
4 95 17 16 3 
4 112 110 115 113 
4 110 116 120 58 
4 126 120 58 59 
4 127 95 4 17 
4 107 96 16 2 
4 72 56 114 73 
4 127 87 77 80 
4 93 94 78 80 
4 70 115 46 106 
4 92 101 41 91 
4 100 93 92 79 
4 127 87 128 18 
4 98 101 103 118 
4 91 92 28 41 
4 100 101 40 27 
4 98 88 81 82 
4 126 91 29 42 
4 117 120 126 60 
4 90 54 89 60 
4 126 90 55 29 
4 100 81 80 78 
4 104 80 88 87 
4 120 64 58 59 
4 107 61 120 60 
4 50 111 56 73 
4 105 83 82 47 
4 104 88 85 86 
4 127 6 17 4 
4 103 104 80 98 
4 117 107 60 89 
4 81 88 98 80 
4 77 127 80 94 
4 48 101 40 82 
4 87 86 18 7 
4 128 87 86 18 
4 123 24 20 21 
4 69 108 106 84 
4 116 121 102 126 
4 87 127 104 80 
4 62 23 14 15 
4 109 86 8 19 
4 109 75 65 68 
4 84 85 66 68 
4 106 84 67 69 
4 70 46 36 37 
4 83 82 47 39 
4 106 67 37 69 
4 83 88 99 82 
4 118 91 121 101 
4 102 119 108 113 
4 100 81 78 79 
4 100 81 79 40 
4 127 95 125 94 
4 106 47 105 46 
4 127 77 87 6 
4 96 16 125 107 
4 98 103 102 118 
4 112 72 114 71 
4 122 107 16 23 
4 109 102 104 123 
4 113 70 115 112 
4 106 70 113 69 
4 99 88 83 84 
4 108 69 76 68 
4 127 104 128 87 
4 98 118 121 101 
4 75 20 119 109 
4 75 11 74 20 
4 111 63 13 50 
4 127 103 104 80 
4 111 73 50 12 
4 72 73 51 56 
4 111 73 12 74 
4 105 121 115 49 
4 120 64 61 62 
4 27 101 41 92 
4 118 97 90 91 
4 112 110 52 33 
4 112 70 45 36 
4 124 62 23 22 
4 114 76 72 73 
4 108 75 68 76 
4 84 69 66 67 
4 106 37 67 38 
4 112 110 114 72 
4 125 97 95 96 
4 104 88 98 99 
4 109 65 75 10 
4 128 109 19 86 
4 45 70 115 46 
4 109 68 108 75 
4 58 57 64 120 
4 103 97 92 93 
4 120 60 64 59 
4 119 108 113 76 
4 126 58 116 43 
4 105 83 106 99 
4 110 114 72 57 
4 20 119 109 123 
4 124 63 62 22 
4 53 15 0 2 
4 63 62 22 14 
4 111 123 120 119 
4 117 97 89 90 
4 107 62 15 23 
4 113 76 70 71 
4 64 63 120 56 
4 111 63 50 56 
4 53 107 89 61 
4 107 61 53 15 
4 57 110 120 58 
4 107 53 96 2 
4 125 96 95 16 
4 126 29 55 31 
4 106 83 38 67 
4 117 90 118 97 
4 125 97 94 95 
4 120 64 60 61 
4 124 62 107 23 
4 110 52 33 57 
4 112 72 71 52 
4 72 57 51 52 
4 119 75 74 20 
4 57 64 120 56 
4 63 120 56 111 
4 104 109 86 85 
4 116 49 43 44 
4 116 49 42 43 
4 121 49 41 42 
4 111 63 124 22 
4 113 76 69 70 
4 37 106 70 46 
4 80 103 94 127 
4 81 100 80 98 
4 105 46 47 49 
4 121 48 41 49 
4 105 49 47 48 
4 82 40 48 39 
4 86 19 18 7 
4 109 85 65 8 
4 86 19 7 8 
4 33 35 52 112 
4 112 44 33 35 
4 112 36 45 35 
4 84 69 68 66 
4 126 60 120 59 
4 112 71 35 52 
4 72 57 56 51 
4 109 84 108 68 
4 101 48 27 41 
4 126 29 31 42 
4 58 59 32 43 
4 114 72 57 56 
4 91 42 28 29 
4 61 107 89 60 
4 59 55 126 60 
4 124 24 22 23 
4 122 24 23 16 
4 124 22 24 21 
4 123 20 24 19 
4 43 58 116 44 
4 91 42 41 28 
4 111 12 13 21 
4 63 14 22 13 
4 21 123 119 20 
4 111 13 22 21 
4 105 82 48 47 
4 50 13 12 9 
4 120 64 62 63 
4 106 83 47 38 
4 102 126 120 116 
4 56 114 73 111 
4 83 38 39 47 
4 121 91 42 41 
4 25 27 79 40 
4 128 24 18 19 
4 106 46 38 47 
4 75 20 10 11 
4 127 94 77 4 
4 115 45 46 49 
4 65 10 8 5 
4 126 43 42 31 
4 122 17 24 16 
4 128 18 24 17 
4 127 6 18 17 
4 93 80 103 94 
4 21 11 20 74 
4 117 125 96 97 
CELL_TYPES 408
10
10
10
10
10
10
10
10
10
10
10
10
10
10
10
10
10
10
10
10
10
10
10
10
10
10
10
10
10
10
10
10
10
10
10
10
10
10
10
10
10
10
10
10
10
10
10
10
10
10
10
10
10
10
10
10
10
10
10
10
10
10
10
10
10
10
10
10
10
10
10
10
10
10
10
10
10
10
10
10
10
10
10
10
10
10
10
10
10
10
10
10
10
10
10
10
10
10
10
10
10
10
10
10
10
10
10
10
10
10
10
10
10
10
10
10
10
10
10
10
10
10
10
10
10
10
10
10
10
10
10
10
10
10
10
10
10
10
10
10
10
10
10
10
10
10
10
10
10
10
10
10
10
10
10
10
10
10
10
10
10
10
10
10
10
10
10
10
10
10
10
10
10
10
10
10
10
10
10
10
10
10
10
10
10
10
10
10
10
10
10
10
10
10
10
10
10
10
10
10
10
10
10
10
10
10
10
10
10
10
10
10
10
10
10
10
10
10
10
10
10
10
10
10
10
10
10
10
10
10
10
10
10
10
10
10
10
10
10
10
10
10
10
10
10
10
10
10
10
10
10
10
10
10
10
10
10
10
10
10
10
10
10
10
10
10
10
10
10
10
10
10
10
10
10
10
10
10
10
10
10
10
10
10
10
10
10
10
10
10
10
10
10
10
10
10
10
10
10
10
10
10
10
10
10
10
10
10
10
10
10
10
10
10
10
10
10
10
10
10
10
10
10
10
10
10
10
10
10
10
10
10
10
10
10
10
10
10
10
10
10
10
10
10
10
10
10
10
10
10
10
10
10
10
10
10
10
10
10
10
10
10
10
10
10
10
10
10
10
10
10
10
10
10
10
10
10
10
10
10
10
10
10
10
10
10
10
10
10
10
10
10
10
10
10
10
10
10
10
10
10
10
10
10
10
10
10
10
POINT_DATA 129
SCALARS fixed float
LOOKUP_TABLE default
1
1
1
1
1
1
1
1
1
1
1
1
1
1
1
1
1
1
1
1
1
1
1
1
1
1
1
1
1
1
1
1
1
1
1
1
1
1
1
1
1
1
1
1
1
1
1
1
1
1
1
1
1
1
1
1
1
1
1
1
1
1
1
1
1
1
1
1
1
1
1
1
1
1
1
1
1
1
1
1
1
1
1
1
1
1
1
1
1
1
1
1
1
1
1
1
1
1
0
0
0
0
0
0
0
0
0
0
0
0
0
0
0
0
0
0
0
0
0
0
0
0
0
0
0
0
0
0
0
