# vtk DataFile Version 2.0
Mesquite Mesh original_mesh .
ASCII
DATASET UNSTRUCTURED_GRID
POINTS 5 float
1 0 0
0 0 0
0.5 0.866025403785 0
0.5 0.288675134595 0.816496580928
0.5 0.288675134595 -0.816496580928
CELLS 2 10
4 0 1 2 3
4 0 2 1 4
CELL_TYPES 2
10
10
POINT_DATA 5
SCALARS fixed float
LOOKUP_TABLE default
0
0
0
1
1

