# vtk DataFile Version 3.0
MOAB 3.99 (Alpha)
ASCII
DATASET UNSTRUCTURED_GRID
POINTS 90 double
-1.4 -1.714505519e-16 3
-1.315569669 -0.4788282007 3
-1.07246222 -0.8999026536 3
-0.7 -1.212435565 3
-0.2431074487 -1.378730854 3
0.2431074487 -1.378730854 3
0.7 -1.212435565 3
1.07246222 -0.8999026536 3
1.315569669 -0.4788282007 3
1.4 0 3
1.315569669 0.4788282007 3
1.07246222 0.8999026536 3
0.7 1.212435565 3
0.2431074487 1.378730854 3
-0.2431074487 1.378730854 3
-0.7 1.212435565 3
-1.07246222 0.8999026536 3
-1.315569669 0.4788282007 3
1 6.327163877e-16 5
0.8885665282 -0.2595966396 5.371444906
0.7509735428 -0.3627193377 5.830088191
0.6110679419 -0.4186289287 6.296440194
0.4704204204 -0.4441227085 6.765265265
0.3295795796 -0.4441227085 7.234734735
0.1889320581 -0.4186289287 7.703559806
0.04902645722 -0.3627193377 8.169911809
-0.08856652822 -0.2595966396 8.628555094
-0.2 -2.433950477e-16 9
-0.08856652822 0.2595966396 8.628555094
0.04902645722 0.3627193377 8.169911809
0.1889320581 0.4186289287 7.703559806
0.3295795796 0.4441227085 7.234734735
0.4704204204 0.4441227085 6.765265265
0.6110679419 0.4186289287 6.296440194
0.7509735428 0.3627193377 5.830088191
0.8885665282 0.2595966396 5.371444906
1.3 2.05632826e-16 3.5
1.2 3.796298326e-16 4
1.1 5.219910199e-16 4.5
1.209180328 -0.4241470951 3.592937834
1.102601789 -0.3693912159 4.185835022
0.9957655381 -0.3145461167 4.778677691
0.9961557386 -0.7687443605 3.708549159
0.9180699746 -0.6357094464 4.416589352
0.8370404975 -0.5004197607 5.123893122
0.6860673556 -1.026401805 3.827097357
0.6700042081 -0.8335342814 4.652839452
0.6479740263 -0.6313778449 5.476427513
0.3067643977 -1.171149095 3.946706272
0.372433882 -0.951458882 4.891230577
0.4342324613 -0.7115990383 5.831873857
-0.1031820164 -1.182275716 4.066151341
0.04615544296 -0.97296797 5.129689446
0.2021781525 -0.7351153179 6.18794499
-0.4957665573 -1.052185115 4.184335819
-0.2771008302 -0.8843625053 5.366205899
-0.03726410851 -0.6905194464 6.542378998
-0.8196668687 -0.792261622 4.300148569
-0.554314604 -0.6838629587 5.598485413
-0.2623028454 -0.5635224063 6.892105676
-1.030327744 -0.4330607772 4.411805083
-0.7394387767 -0.3888653833 5.822722206
-0.4334089367 -0.3446996333 7.231150313
-1.1 -1.347111479e-16 4.5
-0.8 -9.797174393e-17 6
-0.5 -5.053215498e-16 7.5
-1.030327744 0.4330607772 4.411805083
-0.7394387767 0.3888653833 5.822722206
-0.4334089367 0.3446996333 7.231150313
-0.8196668687 0.792261622 4.300148569
-0.554314604 0.6838629587 5.598485413
-0.2623028454 0.5635224063 6.892105676
-0.4957665573 1.052185115 4.184335819
-0.2771008302 0.8843625053 5.366205899
-0.03726410851 0.6905194464 6.542378998
-0.1031820164 1.182275716 4.066151341
0.04615544296 0.97296797 5.129689446
0.2021781525 0.7351153179 6.18794499
0.3067643977 1.171149095 3.946706272
0.372433882 0.951458882 4.891230577
0.4342324613 0.7115990383 5.831873857
0.6860673556 1.026401805 3.827097357
0.6700042081 0.8335342814 4.652839452
0.6479740263 0.6313778449 5.476427513
0.9961557386 0.7687443605 3.708549159
0.9180699746 0.6357094464 4.416589352
0.8370404975 0.5004197607 5.123893122
1.209180328 0.4241470951 3.592937834
1.102601789 0.3693912159 4.185835022
0.9957655381 0.3145461167 4.778677691
CELLS 72 360
4 89 35 18 38
4 88 89 38 37
4 87 88 37 36
4 10 87 36 9
4 86 34 35 89
4 85 86 89 88
4 84 85 88 87
4 11 84 87 10
4 83 33 34 86
4 82 83 86 85
4 81 82 85 84
4 12 81 84 11
4 80 32 33 83
4 79 80 83 82
4 78 79 82 81
4 13 78 81 12
4 77 31 32 80
4 76 77 80 79
4 75 76 79 78
4 14 75 78 13
4 74 30 31 77
4 73 74 77 76
4 72 73 76 75
4 15 72 75 14
4 71 29 30 74
4 70 71 74 73
4 69 70 73 72
4 16 69 72 15
4 68 28 29 71
4 67 68 71 70
4 66 67 70 69
4 17 66 69 16
4 65 27 28 68
4 64 65 68 67
4 63 64 67 66
4 0 63 66 17
4 62 26 27 65
4 61 62 65 64
4 60 61 64 63
4 1 60 63 0
4 59 25 26 62
4 58 59 62 61
4 57 58 61 60
4 2 57 60 1
4 56 24 25 59
4 55 56 59 58
4 54 55 58 57
4 3 54 57 2
4 53 23 24 56
4 52 53 56 55
4 51 52 55 54
4 4 51 54 3
4 50 22 23 53
4 49 50 53 52
4 48 49 52 51
4 5 48 51 4
4 47 21 22 50
4 46 47 50 49
4 45 46 49 48
4 6 45 48 5
4 44 20 21 47
4 43 44 47 46
4 42 43 46 45
4 7 42 45 6
4 41 19 20 44
4 40 41 44 43
4 39 40 43 42
4 8 39 42 7
4 38 18 19 41
4 37 38 41 40
4 36 37 40 39
4 9 36 39 8
CELL_TYPES 72
9
9
9
9
9
9
9
9
9
9
9
9
9
9
9
9
9
9
9
9
9
9
9
9
9
9
9
9
9
9
9
9
9
9
9
9
9
9
9
9
9
9
9
9
9
9
9
9
9
9
9
9
9
9
9
9
9
9
9
9
9
9
9
9
9
9
9
9
9
9
9
9
POINT_DATA 90
SCALARS GLOBAL_ID int 1
LOOKUP_TABLE default
1 
2 
3 
4 
5 
6 
7 
8 
9 
10 
11 
12 
13 
14 
15 
16 
17 
18 
19 
20 
21 
22 
23 
24 
25 
26 
27 
28 
29 
30 
31 
32 
33 
34 
35 
36 
37 
38 
39 
40 
41 
42 
43 
44 
45 
46 
47 
48 
49 
50 
51 
52 
53 
54 
55 
56 
57 
58 
59 
60 
61 
62 
63 
64 
65 
66 
67 
68 
69 
70 
71 
72 
73 
74 
75 
76 
77 
78 
79 
80 
81 
82 
83 
84 
85 
86 
87 
88 
89 
90 
CELL_DATA 72
SCALARS GLOBAL_ID int 1
LOOKUP_TABLE default
72 
71 
70 
69 
68 
67 
66 
65 
64 
63 
62 
61 
60 
59 
58 
57 
56 
55 
54 
53 
52 
51 
50 
49 
48 
47 
46 
45 
44 
43 
42 
41 
40 
39 
38 
37 
36 
35 
34 
33 
32 
31 
30 
29 
28 
27 
26 
25 
24 
23 
22 
21 
20 
19 
18 
17 
16 
15 
14 
13 
12 
11 
10 
9 
8 
7 
6 
5 
4 
3 
2 
1 
