# vtk DataFile Version 3.0
MOAB 3.99 (Alpha)
ASCII
DATASET UNSTRUCTURED_GRID
POINTS 352 double
1.913417162 4.619397663 -5
1.913417162 4.619397663 5
1.588306609 4.74102121 -4.036467504
1.332348459 4.819216491 -3.047853629
1.148123693 4.866396201 -2.041437394
1.037089599 4.891262124 -1.023540771
1 4.898979486 -3.60822483e-16
1.037089599 4.891262124 1.023540773
1.148123693 4.866396201 2.041437395
1.332348459 4.819216491 3.04785363
1.58830661 4.74102121 4.036467506
-1.913417162 4.619397663 -5
-0.9754516101 4.903926402 -5
-4.183623424e-13 5 -5
0.9754516101 4.903926402 -5
-1.913417162 4.619397663 5
-1.588306609 4.74102121 4.036467504
-1.332348459 4.819216491 3.047853629
-1.148123693 4.866396201 2.041437394
-1.037089599 4.891262124 1.023540771
-1 4.898979486 2.498001805e-16
-1.037089599 4.891262124 -1.023540773
-1.148123693 4.866396201 -2.041437395
-1.332348459 4.819216491 -3.047853631
-1.58830661 4.74102121 -4.036467506
0.9754516101 4.903926402 5
3.061616998e-16 5 5
-0.9754516101 4.903926402 5
0.7983865296 4.935846326 4.036467505
0.6650330698 4.95557575 3.04785363
0.5716619782 4.967212758 2.041437395
0.5162651514 4.97327561 1.023540772
0.4978913078 4.975148666 0
0.5162651513 4.97327561 -1.023540772
0.571661978 4.967212758 -2.041437394
0.6650330695 4.95557575 -3.047853629
0.7983865292 4.935846326 -4.036467505
1.990094913e-10 5 4.036467505
8.60358077e-11 5 3.04785363
9.552596855e-11 5 2.041437395
4.917669998e-11 5 1.023540772
-1.981947123e-13 5 0
-4.900648738e-11 5 -1.023540772
-1.011349556e-10 5 -2.041437395
-2.098891041e-10 5 -3.04785363
-1.977880235e-10 5 -4.036467505
-0.7983865292 4.935846326 4.036467505
-0.6650330696 4.95557575 3.04785363
-0.571661978 4.967212758 2.041437394
-0.5162651513 4.97327561 1.023540772
-0.4978913078 4.975148666 0
-0.5162651514 4.97327561 -1.023540772
-0.5716619782 4.967212758 -2.041437395
-0.6650330699 4.95557575 -3.04785363
-0.7983865296 4.935846326 -4.036467505
1.913417162 -4.619397663 5
1.913417162 -4.619397663 -5
1.588306609 -4.74102121 4.036467504
1.332348459 -4.819216491 3.047853629
1.148123693 -4.866396201 2.041437394
1.037089599 -4.891262124 1.023540771
1 -4.898979486 2.775557562e-16
1.037089599 -4.891262124 -1.023540773
1.148123693 -4.866396201 -2.041437395
1.332348459 -4.819216491 -3.04785363
1.58830661 -4.74102121 -4.036467506
-1.913417162 -4.619397663 5
-0.9754516101 -4.903926402 5
-1.914284349e-15 -5 5
0.9754516101 -4.903926402 5
-1.913417162 -4.619397663 -5
-1.588306609 -4.74102121 -4.036467504
-1.332348459 -4.819216491 -3.047853629
-1.148123693 -4.866396201 -2.041437394
-1.037089599 -4.891262124 -1.023540771
-1 -4.898979486 -3.330669074e-16
-1.037089599 -4.891262124 1.023540773
-1.148123693 -4.866396201 2.041437395
-1.332348459 -4.819216491 3.047853631
-1.58830661 -4.74102121 4.036467506
0.9754516101 -4.903926402 -5
-8.040613248e-16 -5 -5
-0.9754516101 -4.903926402 -5
0.7983865296 -4.935846326 -4.036467505
0.6650330698 -4.95557575 -3.04785363
0.5716619782 -4.967212758 -2.041437395
0.5162651514 -4.97327561 -1.023540772
0.4978913078 -4.975148666 -1.110223025e-16
0.5162651513 -4.97327561 1.023540772
0.571661978 -4.967212758 2.041437394
0.6650330695 -4.95557575 3.047853629
0.7983865292 -4.935846326 4.036467505
1.990499057e-10 -5 -4.036467505
8.611766281e-11 -5 -3.04785363
9.564609992e-11 -5 -2.041437395
4.933585639e-11 -5 -1.023540772
3.154292504e-16 -5 2.220446049e-16
-4.876798967e-11 -5 1.023540772
-1.008566063e-10 -5 2.041437395
-2.095670215e-10 -5 3.04785363
-1.974202703e-10 -5 4.036467505
-0.7983865292 -4.935846326 -4.036467505
-0.6650330696 -4.95557575 -3.04785363
-0.571661978 -4.967212758 -2.041437394
-0.5162651513 -4.97327561 -1.023540772
-0.4978913078 -4.975148666 4.440892099e-16
-0.5162651514 -4.97327561 1.023540772
-0.5716619782 -4.967212758 2.041437395
-0.6650330699 -4.95557575 3.04785363
-0.7983865296 -4.935846326 4.036467505
-4.619397663 1.913417162 -5
-4.619397663 1.913417162 5
-4.74102121 1.588306609 -4.036467504
-4.819216491 1.332348459 -3.047853629
-4.866396201 1.148123693 -2.041437394
-4.891262124 1.037089599 -1.023540771
-4.898979486 1 -3.053113318e-16
-4.891262124 1.037089599 1.023540773
-4.866396201 1.148123693 2.041437395
-4.819216491 1.332348459 3.047853631
-4.74102121 1.58830661 4.036467506
-4.619397663 -1.913417162 -5
-4.903926402 -0.9754516101 -5
-5 -2.832769449e-15 -5
-4.903926402 0.9754516101 -5
-4.619397663 -1.913417162 5
-4.74102121 -1.588306609 4.036467504
-4.819216491 -1.332348459 3.047853629
-4.866396201 -1.148123693 2.041437394
-4.891262124 -1.037089599 1.023540771
-4.898979486 -1 3.60822483e-16
-4.891262124 -1.037089599 -1.023540773
-4.866396201 -1.148123693 -2.041437395
-4.819216491 -1.332348459 -3.047853631
-4.74102121 -1.58830661 -4.036467506
-4.903926402 0.9754516101 5
-5 2.832769449e-15 5
-4.903926402 -0.9754516101 5
-4.935846326 0.7983865296 4.036467505
-4.95557575 0.6650330699 3.047853631
-4.967212758 0.5716619782 2.041437395
-4.97327561 0.5162651514 1.023540772
-4.975148666 0.4978913078 3.330669074e-16
-4.97327561 0.5162651513 -1.023540772
-4.967212758 0.571661978 -2.041437394
-4.95557575 0.6650330696 -3.04785363
-4.935846326 0.7983865292 -4.036467505
-5 1.983551118e-10 4.036467505
-5 1.479292682e-10 3.04785363
-5 9.831088983e-11 2.041437395
-5 4.908245916e-11 1.023540772
-5 2.628577087e-16 0
-5 -4.908114295e-11 -1.023540772
-5 -9.831041375e-11 -2.041437395
-5 -1.479347928e-10 -3.04785363
-5 -1.983560737e-10 -4.036467505
-4.935846326 -0.7983865292 4.036467505
-4.95557575 -0.6650330696 3.04785363
-4.967212758 -0.571661978 2.041437394
-4.97327561 -0.5162651513 1.023540772
-4.975148666 -0.4978913078 -4.440892099e-16
-4.97327561 -0.5162651514 -1.023540772
-4.967212758 -0.5716619782 -2.041437395
-4.95557575 -0.6650330699 -3.047853631
-4.935846326 -0.7983865296 -4.036467505
4.619397663 1.913417162 5
4.157348062 2.777851165 5
3.535533906 3.535533906 5
2.777851165 4.157348062 5
4.619397663 1.913417162 -5
4.74102121 1.588306609 4.036467504
4.819216491 1.332348459 3.047853629
4.866396201 1.148123693 2.041437394
4.891262124 1.037089599 1.023540771
4.898979486 1 2.498001805e-16
4.891262124 1.037089599 -1.023540773
4.866396201 1.148123693 -2.041437395
4.819216491 1.332348459 -3.047853631
4.74102121 1.58830661 -4.036467506
2.777851165 4.157348062 -5
3.535533906 3.535533906 -5
4.157348062 2.777851165 -5
2.620442038 4.258319331 -4.036467505
2.491483526 4.335032853 -3.047853629
2.395319556 4.388900116 -2.041437394
2.33582067 4.420853062 -1.023540772
2.315667867 4.431442466 0
2.33582067 4.420853062 1.023540772
2.395319556 4.388900116 2.041437395
2.491483526 4.335032853 3.04785363
2.620442038 4.258319331 4.036467505
3.535533906 3.535533906 -4.036467505
3.535533906 3.535533906 -3.04785363
3.535533906 3.535533906 -2.041437395
3.535533906 3.535533906 -1.023540772
3.535533906 3.535533906 0
3.535533906 3.535533906 1.023540772
3.535533906 3.535533906 2.041437395
3.535533906 3.535533906 3.04785363
3.535533906 3.535533906 4.036467505
4.258319331 2.620442038 -4.036467505
4.335032853 2.491483526 -3.04785363
4.388900116 2.395319556 -2.041437395
4.420853062 2.33582067 -1.023540772
4.431442466 2.315667867 -4.440892099e-16
4.420853062 2.33582067 1.023540772
4.388900116 2.395319556 2.041437394
4.335032853 2.491483526 3.04785363
4.258319331 2.620442038 4.036467505
4.619397663 -1.913417162 -5
4.157348062 -2.777851165 -5
3.535533906 -3.535533906 -5
2.777851165 -4.157348062 -5
4.619397663 -1.913417162 5
4.74102121 -1.588306609 -4.036467504
4.819216491 -1.332348459 -3.047853629
4.866396201 -1.148123693 -2.041437394
4.891262124 -1.037089599 -1.023540771
4.898979486 -1 -3.60822483e-16
4.891262124 -1.037089599 1.023540773
4.866396201 -1.148123693 2.041437395
4.819216491 -1.332348459 3.047853631
4.74102121 -1.58830661 4.036467506
2.777851165 -4.157348062 5
3.535533906 -3.535533906 5
4.157348062 -2.777851165 5
2.620442038 -4.258319331 4.036467505
2.491483526 -4.335032853 3.047853629
2.395319556 -4.388900116 2.041437394
2.33582067 -4.420853062 1.023540772
2.315667867 -4.431442466 0
2.33582067 -4.420853062 -1.023540772
2.395319556 -4.388900116 -2.041437395
2.491483526 -4.335032853 -3.04785363
2.620442038 -4.258319331 -4.036467505
3.535533906 -3.535533906 4.036467505
3.535533906 -3.535533906 3.04785363
3.535533906 -3.535533906 2.041437395
3.535533906 -3.535533906 1.023540772
3.535533906 -3.535533906 0
3.535533906 -3.535533906 -1.023540772
3.535533906 -3.535533906 -2.041437395
3.535533906 -3.535533906 -3.04785363
3.535533906 -3.535533906 -4.036467505
4.258319331 -2.620442038 4.036467505
4.335032853 -2.491483526 3.04785363
4.388900116 -2.395319556 2.041437395
4.420853062 -2.33582067 1.023540772
4.431442466 -2.315667867 -4.440892099e-16
4.420853062 -2.33582067 -1.023540772
4.388900116 -2.395319556 -2.041437394
4.335032853 -2.491483526 -3.04785363
4.258319331 -2.620442038 -4.036467505
-2.777851165 4.157348062 5
-3.535533906 3.535533906 5
-4.157348062 2.777851165 5
-4.157348062 2.777851165 -5
-3.535533906 3.535533906 -5
-2.777851165 4.157348062 -5
-4.258319331 2.620442038 -4.036467505
-4.335032853 2.491483526 -3.04785363
-4.388900116 2.395319556 -2.041437394
-4.420853062 2.33582067 -1.023540772
-4.431442466 2.315667867 4.440892099e-16
-4.420853062 2.33582067 1.023540772
-4.388900116 2.395319556 2.041437395
-4.335032853 2.491483526 3.047853631
-4.258319331 2.620442038 4.036467505
-3.535533906 3.535533906 -4.036467505
-3.535533906 3.535533906 -3.04785363
-3.535533906 3.535533906 -2.041437395
-3.535533906 3.535533906 -1.023540772
-3.535533906 3.535533906 0
-3.535533906 3.535533906 1.023540772
-3.535533906 3.535533906 2.041437395
-3.535533906 3.535533906 3.04785363
-3.535533906 3.535533906 4.036467505
-2.620442038 4.258319331 -4.036467505
-2.491483526 4.335032853 -3.047853631
-2.395319556 4.388900116 -2.041437395
-2.33582067 4.420853062 -1.023540772
-2.315667867 4.431442466 0
-2.33582067 4.420853062 1.023540772
-2.395319556 4.388900116 2.041437394
-2.491483526 4.335032853 3.04785363
-2.620442038 4.258319331 4.036467505
5 0 5
4.903926402 0.9754516101 5
4.903926402 -0.9754516101 5
5 0 -5
4.903926402 -0.9754516101 -5
4.903926402 0.9754516101 -5
4.935846326 0.7983865296 -4.036467505
4.95557575 0.6650330699 -3.047853631
4.967212758 0.5716619782 -2.041437395
4.97327561 0.5162651514 -1.023540772
4.975148666 0.4978913078 -5.551115123e-16
4.97327561 0.5162651513 1.023540772
4.967212758 0.571661978 2.041437394
4.95557575 0.6650330696 3.04785363
4.935846326 0.7983865292 4.036467505
5 1.983550711e-10 -4.036467505
5 1.479299354e-10 -3.04785363
5 9.831036085e-11 -2.041437395
5 4.908240651e-11 -1.023540772
5 6.308585008e-16 -2.220446049e-16
5 -4.908135354e-11 1.023540772
5 -9.83090384e-11 2.041437395
5 -1.479312698e-10 3.04785363
5 -1.98351955e-10 4.036467505
4.935846326 -0.7983865292 -4.036467505
4.95557575 -0.6650330696 -3.04785363
4.967212758 -0.571661978 -2.041437394
4.97327561 -0.5162651513 -1.023540772
4.975148666 -0.4978913078 -4.440892099e-16
4.97327561 -0.5162651514 1.023540772
4.967212758 -0.5716619782 2.041437395
4.95557575 -0.6650330699 3.047853631
4.935846326 -0.7983865296 4.036467505
-4.157348062 -2.777851165 5
-3.535533906 -3.535533906 5
-2.777851165 -4.157348062 5
-2.777851165 -4.157348062 -5
-3.535533906 -3.535533906 -5
-4.157348062 -2.777851165 -5
-2.620442038 -4.258319331 -4.036467505
-2.491483526 -4.335032853 -3.04785363
-2.395319556 -4.388900116 -2.041437394
-2.33582067 -4.420853062 -1.023540772
-2.315667867 -4.431442466 0
-2.33582067 -4.420853062 1.023540772
-2.395319556 -4.388900116 2.041437395
-2.491483526 -4.335032853 3.047853631
-2.620442038 -4.258319331 4.036467505
-3.535533906 -3.535533906 -4.036467505
-3.535533906 -3.535533906 -3.04785363
-3.535533906 -3.535533906 -2.041437395
-3.535533906 -3.535533906 -1.023540772
-3.535533906 -3.535533906 -2.220446049e-16
-3.535533906 -3.535533906 1.023540772
-3.535533906 -3.535533906 2.041437395
-3.535533906 -3.535533906 3.04785363
-3.535533906 -3.535533906 4.036467505
-4.258319331 -2.620442038 -4.036467505
-4.335032853 -2.491483526 -3.047853631
-4.388900116 -2.395319556 -2.041437395
-4.420853062 -2.33582067 -1.023540772
-4.431442466 -2.315667867 0
-4.420853062 -2.33582067 1.023540772
-4.388900116 -2.395319556 2.041437394
-4.335032853 -2.491483526 3.04785363
-4.258319331 -2.620442038 4.036467505
CELLS 320 1600
4 54 12 11 24
4 53 54 24 23
4 52 53 23 22
4 51 52 22 21
4 50 51 21 20
4 49 50 20 19
4 48 49 19 18
4 47 48 18 17
4 46 47 17 16
4 27 46 16 15
4 45 13 12 54
4 44 45 54 53
4 43 44 53 52
4 42 43 52 51
4 41 42 51 50
4 40 41 50 49
4 39 40 49 48
4 38 39 48 47
4 37 38 47 46
4 26 37 46 27
4 36 14 13 45
4 35 36 45 44
4 34 35 44 43
4 33 34 43 42
4 32 33 42 41
4 31 32 41 40
4 30 31 40 39
4 29 30 39 38
4 28 29 38 37
4 25 28 37 26
4 2 0 14 36
4 3 2 36 35
4 4 3 35 34
4 5 4 34 33
4 6 5 33 32
4 7 6 32 31
4 8 7 31 30
4 9 8 30 29
4 10 9 29 28
4 1 10 28 25
4 109 67 66 79
4 108 109 79 78
4 107 108 78 77
4 106 107 77 76
4 105 106 76 75
4 104 105 75 74
4 103 104 74 73
4 102 103 73 72
4 101 102 72 71
4 82 101 71 70
4 100 68 67 109
4 99 100 109 108
4 98 99 108 107
4 97 98 107 106
4 96 97 106 105
4 95 96 105 104
4 94 95 104 103
4 93 94 103 102
4 92 93 102 101
4 81 92 101 82
4 91 69 68 100
4 90 91 100 99
4 89 90 99 98
4 88 89 98 97
4 87 88 97 96
4 86 87 96 95
4 85 86 95 94
4 84 85 94 93
4 83 84 93 92
4 80 83 92 81
4 57 55 69 91
4 58 57 91 90
4 59 58 90 89
4 60 59 89 88
4 61 60 88 87
4 62 61 87 86
4 63 62 86 85
4 64 63 85 84
4 65 64 84 83
4 56 65 83 80
4 164 122 121 134
4 163 164 134 133
4 162 163 133 132
4 161 162 132 131
4 160 161 131 130
4 159 160 130 129
4 158 159 129 128
4 157 158 128 127
4 156 157 127 126
4 137 156 126 125
4 155 123 122 164
4 154 155 164 163
4 153 154 163 162
4 152 153 162 161
4 151 152 161 160
4 150 151 160 159
4 149 150 159 158
4 148 149 158 157
4 147 148 157 156
4 136 147 156 137
4 146 124 123 155
4 145 146 155 154
4 144 145 154 153
4 143 144 153 152
4 142 143 152 151
4 141 142 151 150
4 140 141 150 149
4 139 140 149 148
4 138 139 148 147
4 135 138 147 136
4 112 110 124 146
4 113 112 146 145
4 114 113 145 144
4 115 114 144 143
4 116 115 143 142
4 117 116 142 141
4 118 117 141 140
4 119 118 140 139
4 120 119 139 138
4 111 120 138 135
4 208 166 165 170
4 207 208 170 171
4 206 207 171 172
4 205 206 172 173
4 204 205 173 174
4 203 204 174 175
4 202 203 175 176
4 201 202 176 177
4 200 201 177 178
4 181 200 178 169
4 199 167 166 208
4 198 199 208 207
4 197 198 207 206
4 196 197 206 205
4 195 196 205 204
4 194 195 204 203
4 193 194 203 202
4 192 193 202 201
4 191 192 201 200
4 180 191 200 181
4 190 168 167 199
4 189 190 199 198
4 188 189 198 197
4 187 188 197 196
4 186 187 196 195
4 185 186 195 194
4 184 185 194 193
4 183 184 193 192
4 182 183 192 191
4 179 182 191 180
4 10 1 168 190
4 9 10 190 189
4 8 9 189 188
4 7 8 188 187
4 6 7 187 186
4 5 6 186 185
4 4 5 185 184
4 3 4 184 183
4 2 3 183 182
4 0 2 182 179
4 252 210 209 214
4 251 252 214 215
4 250 251 215 216
4 249 250 216 217
4 248 249 217 218
4 247 248 218 219
4 246 247 219 220
4 245 246 220 221
4 244 245 221 222
4 225 244 222 213
4 243 211 210 252
4 242 243 252 251
4 241 242 251 250
4 240 241 250 249
4 239 240 249 248
4 238 239 248 247
4 237 238 247 246
4 236 237 246 245
4 235 236 245 244
4 224 235 244 225
4 234 212 211 243
4 233 234 243 242
4 232 233 242 241
4 231 232 241 240
4 230 231 240 239
4 229 230 239 238
4 228 229 238 237
4 227 228 237 236
4 226 227 236 235
4 223 226 235 224
4 65 56 212 234
4 64 65 234 233
4 63 64 233 232
4 62 63 232 231
4 61 62 231 230
4 60 61 230 229
4 59 60 229 228
4 58 59 228 227
4 57 58 227 226
4 55 57 226 223
4 285 253 15 16
4 284 285 16 17
4 283 284 17 18
4 282 283 18 19
4 281 282 19 20
4 280 281 20 21
4 279 280 21 22
4 278 279 22 23
4 277 278 23 24
4 258 277 24 11
4 276 254 253 285
4 275 276 285 284
4 274 275 284 283
4 273 274 283 282
4 272 273 282 281
4 271 272 281 280
4 270 271 280 279
4 269 270 279 278
4 268 269 278 277
4 257 268 277 258
4 267 255 254 276
4 266 267 276 275
4 265 266 275 274
4 264 265 274 273
4 263 264 273 272
4 262 263 272 271
4 261 262 271 270
4 260 261 270 269
4 259 260 269 268
4 256 259 268 257
4 120 111 255 267
4 119 120 267 266
4 118 119 266 265
4 117 118 265 264
4 116 117 264 263
4 115 116 263 262
4 114 115 262 261
4 113 114 261 260
4 112 113 260 259
4 110 112 259 256
4 318 288 213 222
4 317 318 222 221
4 316 317 221 220
4 315 316 220 219
4 314 315 219 218
4 313 314 218 217
4 312 313 217 216
4 311 312 216 215
4 310 311 215 214
4 290 310 214 209
4 309 286 288 318
4 308 309 318 317
4 307 308 317 316
4 306 307 316 315
4 305 306 315 314
4 304 305 314 313
4 303 304 313 312
4 302 303 312 311
4 301 302 311 310
4 289 301 310 290
4 300 287 286 309
4 299 300 309 308
4 298 299 308 307
4 297 298 307 306
4 296 297 306 305
4 295 296 305 304
4 294 295 304 303
4 293 294 303 302
4 292 293 302 301
4 291 292 301 289
4 170 165 287 300
4 171 170 300 299
4 172 171 299 298
4 173 172 298 297
4 174 173 297 296
4 175 174 296 295
4 176 175 295 294
4 177 176 294 293
4 178 177 293 292
4 169 178 292 291
4 351 319 125 126
4 350 351 126 127
4 349 350 127 128
4 348 349 128 129
4 347 348 129 130
4 346 347 130 131
4 345 346 131 132
4 344 345 132 133
4 343 344 133 134
4 324 343 134 121
4 342 320 319 351
4 341 342 351 350
4 340 341 350 349
4 339 340 349 348
4 338 339 348 347
4 337 338 347 346
4 336 337 346 345
4 335 336 345 344
4 334 335 344 343
4 323 334 343 324
4 333 321 320 342
4 332 333 342 341
4 331 332 341 340
4 330 331 340 339
4 329 330 339 338
4 328 329 338 337
4 327 328 337 336
4 326 327 336 335
4 325 326 335 334
4 322 325 334 323
4 79 66 321 333
4 78 79 333 332
4 77 78 332 331
4 76 77 331 330
4 75 76 330 329
4 74 75 329 328
4 73 74 328 327
4 72 73 327 326
4 71 72 326 325
4 70 71 325 322
CELL_TYPES 320
9
9
9
9
9
9
9
9
9
9
9
9
9
9
9
9
9
9
9
9
9
9
9
9
9
9
9
9
9
9
9
9
9
9
9
9
9
9
9
9
9
9
9
9
9
9
9
9
9
9
9
9
9
9
9
9
9
9
9
9
9
9
9
9
9
9
9
9
9
9
9
9
9
9
9
9
9
9
9
9
9
9
9
9
9
9
9
9
9
9
9
9
9
9
9
9
9
9
9
9
9
9
9
9
9
9
9
9
9
9
9
9
9
9
9
9
9
9
9
9
9
9
9
9
9
9
9
9
9
9
9
9
9
9
9
9
9
9
9
9
9
9
9
9
9
9
9
9
9
9
9
9
9
9
9
9
9
9
9
9
9
9
9
9
9
9
9
9
9
9
9
9
9
9
9
9
9
9
9
9
9
9
9
9
9
9
9
9
9
9
9
9
9
9
9
9
9
9
9
9
9
9
9
9
9
9
9
9
9
9
9
9
9
9
9
9
9
9
9
9
9
9
9
9
9
9
9
9
9
9
9
9
9
9
9
9
9
9
9
9
9
9
9
9
9
9
9
9
9
9
9
9
9
9
9
9
9
9
9
9
9
9
9
9
9
9
9
9
9
9
9
9
9
9
9
9
9
9
9
9
9
9
9
9
9
9
9
9
9
9
9
9
9
9
9
9
9
9
9
9
9
9
9
9
9
9
9
9
9
9
9
9
9
9
9
9
9
9
9
9
POINT_DATA 352
SCALARS GLOBAL_ID int 1
LOOKUP_TABLE default
1 
2 
3 
4 
5 
6 
7 
8 
9 
10 
11 
12 
13 
14 
15 
16 
17 
18 
19 
20 
21 
22 
23 
24 
25 
26 
27 
28 
29 
30 
31 
32 
33 
34 
35 
36 
37 
38 
39 
40 
41 
42 
43 
44 
45 
46 
47 
48 
49 
50 
51 
52 
53 
54 
55 
56 
57 
58 
59 
60 
61 
62 
63 
64 
65 
66 
67 
68 
69 
70 
71 
72 
73 
74 
75 
76 
77 
78 
79 
80 
81 
82 
83 
84 
85 
86 
87 
88 
89 
90 
91 
92 
93 
94 
95 
96 
97 
98 
99 
100 
101 
102 
103 
104 
105 
106 
107 
108 
109 
110 
111 
112 
113 
114 
115 
116 
117 
118 
119 
120 
121 
122 
123 
124 
125 
126 
127 
128 
129 
130 
131 
132 
133 
134 
135 
136 
137 
138 
139 
140 
141 
142 
143 
144 
145 
146 
147 
148 
149 
150 
151 
152 
153 
154 
155 
156 
157 
158 
159 
160 
161 
162 
163 
164 
165 
166 
167 
168 
169 
170 
171 
172 
173 
174 
175 
176 
177 
178 
179 
180 
181 
182 
183 
184 
185 
186 
187 
188 
189 
190 
191 
192 
193 
194 
195 
196 
197 
198 
199 
200 
201 
202 
203 
204 
205 
206 
207 
208 
209 
210 
211 
212 
213 
214 
215 
216 
217 
218 
219 
220 
221 
222 
223 
224 
225 
226 
227 
228 
229 
230 
231 
232 
233 
234 
235 
236 
237 
238 
239 
240 
241 
242 
243 
244 
245 
246 
247 
248 
249 
250 
251 
252 
253 
254 
255 
256 
257 
258 
259 
260 
261 
262 
263 
264 
265 
266 
267 
268 
269 
270 
271 
272 
273 
274 
275 
276 
277 
278 
279 
280 
281 
282 
283 
284 
285 
286 
287 
288 
289 
290 
291 
292 
293 
294 
295 
296 
297 
298 
299 
300 
301 
302 
303 
304 
305 
306 
307 
308 
309 
310 
311 
312 
313 
314 
315 
316 
317 
318 
319 
320 
321 
322 
323 
324 
325 
326 
327 
328 
329 
330 
331 
332 
333 
334 
335 
336 
337 
338 
339 
340 
341 
342 
343 
344 
345 
346 
347 
348 
349 
350 
351 
352 
CELL_DATA 320
SCALARS GLOBAL_ID int 1
LOOKUP_TABLE default
40 
39 
38 
37 
36 
35 
34 
33 
32 
31 
30 
29 
28 
27 
26 
25 
24 
23 
22 
21 
20 
19 
18 
17 
16 
15 
14 
13 
12 
11 
10 
9 
8 
7 
6 
5 
4 
3 
2 
1 
80 
79 
78 
77 
76 
75 
74 
73 
72 
71 
70 
69 
68 
67 
66 
65 
64 
63 
62 
61 
60 
59 
58 
57 
56 
55 
54 
53 
52 
51 
50 
49 
48 
47 
46 
45 
44 
43 
42 
41 
120 
119 
118 
117 
116 
115 
114 
113 
112 
111 
110 
109 
108 
107 
106 
105 
104 
103 
102 
101 
100 
99 
98 
97 
96 
95 
94 
93 
92 
91 
90 
89 
88 
87 
86 
85 
84 
83 
82 
81 
160 
159 
158 
157 
156 
155 
154 
153 
152 
151 
150 
149 
148 
147 
146 
145 
144 
143 
142 
141 
140 
139 
138 
137 
136 
135 
134 
133 
132 
131 
130 
129 
128 
127 
126 
125 
124 
123 
122 
121 
200 
199 
198 
197 
196 
195 
194 
193 
192 
191 
190 
189 
188 
187 
186 
185 
184 
183 
182 
181 
180 
179 
178 
177 
176 
175 
174 
173 
172 
171 
170 
169 
168 
167 
166 
165 
164 
163 
162 
161 
240 
239 
238 
237 
236 
235 
234 
233 
232 
231 
230 
229 
228 
227 
226 
225 
224 
223 
222 
221 
220 
219 
218 
217 
216 
215 
214 
213 
212 
211 
210 
209 
208 
207 
206 
205 
204 
203 
202 
201 
280 
279 
278 
277 
276 
275 
274 
273 
272 
271 
270 
269 
268 
267 
266 
265 
264 
263 
262 
261 
260 
259 
258 
257 
256 
255 
254 
253 
252 
251 
250 
249 
248 
247 
246 
245 
244 
243 
242 
241 
320 
319 
318 
317 
316 
315 
314 
313 
312 
311 
310 
309 
308 
307 
306 
305 
304 
303 
302 
301 
300 
299 
298 
297 
296 
295 
294 
293 
292 
291 
290 
289 
288 
287 
286 
285 
284 
283 
282 
281 
