# vtk DataFile Version 2.0
Mesquite Mesh original_mesh .
ASCII
DATASET UNSTRUCTURED_GRID
POINTS 9 float
1 0 0
0 1.732050807568877193 0
-1 0 0
-1 -2 0
1 -2 0
2.732050807568877193 1 0
1.732050807568877193  2.732050807568877193 0
-1.732050807568877193  2.732050807568877193 0
-2.732050807568877193 1 0
CELLS 4 19
3 0 1 2 
4 0 5 6 1
4 1 7 8 2 
4 2 3 4 0 
CELL_TYPES 4
5
9
9
9
POINT_DATA 9
SCALARS fixed float
LOOKUP_TABLE default
0
0
0
1
1
1
1
1
1
