# vtk DataFile Version 3.0
MOAB 3.99 (Alpha)
ASCII
DATASET UNSTRUCTURED_GRID
POINTS 369 double
2.66905582e-16 4.5 -2.179449472
1.703962211 4.5 -1.358864519
2.124806123 4.5 0.484973132
0.945627686 4.5 1.963616123
-0.945627686 4.5 1.963616123
-2.124806123 4.5 0.484973132
-1.703962211 4.5 -1.358864519
0.1938494471 4.979998992 -0.4025325246
2.66905582e-16 -4.5 -2.179449472
-1.703962211 -4.5 -1.358864519
-2.124806123 -4.5 0.484973132
-0.945627686 -4.5 1.963616123
0.945627686 -4.5 1.963616123
2.124806123 -4.5 0.484973132
1.703962211 -4.5 -1.358864519
-0.1938494471 -4.979998992 -0.4025325246
6.115575163e-16 0.25 -4.993746089
1.005233697 0.25 -4.891523813
1.969313009 0.25 -4.589041978
2.852768415 0.25 -4.098684224
3.619431146 0.25 -3.440525857
4.237913942 0.25 -2.641511958
4.682896042 0.25 -1.734354248
4.936159829 0.25 -0.7561918717
4.987336652 0.25 0.2529290888
4.834331326 0.25 1.251695103
4.483407908 0.25 2.199216572
3.948933243 0.25 3.056701856
3.252788788 0.25 3.789045408
2.423474777 0.25 4.366264995
1.494943424 0.25 4.76472918
0.5052089122 0.25 4.968124793
-0.5052089122 0.25 4.968124793
-1.494943424 0.25 4.76472918
-2.423474777 0.25 4.366264995
-3.252788788 0.25 3.789045408
-3.948933243 0.25 3.056701856
-4.483407908 0.25 2.199216572
-4.834331326 0.25 1.251695103
-4.987336652 0.25 0.2529290888
-4.936159829 0.25 -0.7561918717
-4.682896042 0.25 -1.734354248
-4.237913942 0.25 -2.641511958
-3.619431146 0.25 -3.440525857
-2.852768415 0.25 -4.098684224
-1.969313009 0.25 -4.589041978
-1.005233697 0.25 -4.891523813
6.123233996e-16 0 -5
1.0064926 0 -4.897649706
1.971779276 0 -4.594789058
2.856341075 0 -4.103817206
3.623963936 0 -3.444834595
4.243221287 0 -2.644820052
4.688760661 0 -1.736526264
4.942341622 0 -0.7571388875
4.993582536 0 0.2532458442
4.840385594 0 1.253262661
4.489022698 0 2.201970758
3.953878685 0 3.060529913
3.256862414 0 3.793790613
2.426509813 0 4.371733081
1.496815615 0 4.770696282
0.5058416099 0 4.974346617
-0.5058416099 0 4.974346617
-1.496815615 0 4.770696282
-2.426509813 0 4.371733081
-3.256862414 0 3.793790613
-3.953878685 0 3.060529913
-4.489022698 0 2.201970758
-4.840385594 0 1.253262661
-4.993582536 0 0.2532458442
-4.942341622 0 -0.7571388875
-4.688760661 0 -1.736526264
-4.243221287 0 -2.644820052
-3.623963936 0 -3.444834595
-2.856341075 0 -4.103817206
-1.971779276 0 -4.594789058
-1.0064926 0 -4.897649706
6.115575163e-16 -0.25 -4.993746089
-1.005233697 -0.25 -4.891523813
-1.969313009 -0.25 -4.589041978
-2.852768415 -0.25 -4.098684224
-3.619431146 -0.25 -3.440525857
-4.237913942 -0.25 -2.641511958
-4.682896042 -0.25 -1.734354248
-4.936159829 -0.25 -0.7561918717
-4.987336652 -0.25 0.2529290888
-4.834331326 -0.25 1.251695103
-4.483407908 -0.25 2.199216572
-3.948933243 -0.25 3.056701856
-3.252788788 -0.25 3.789045408
-2.423474777 -0.25 4.366264995
-1.494943424 -0.25 4.76472918
-0.5052089122 -0.25 4.968124793
0.5052089122 -0.25 4.968124793
1.494943424 -0.25 4.76472918
2.423474777 -0.25 4.366264995
3.252788788 -0.25 3.789045408
3.948933243 -0.25 3.056701856
4.483407908 -0.25 2.199216572
4.834331326 -0.25 1.251695103
4.987336652 -0.25 0.2529290888
4.936159829 -0.25 -0.7561918717
4.682896042 -0.25 -1.734354248
4.237913942 -0.25 -2.641511958
3.619431146 -0.25 -3.440525857
2.852768415 -0.25 -4.098684224
1.969313009 -0.25 -4.589041978
1.005233697 -0.25 -4.891523813
5.999519546e-16 1 -4.898979486
-0.9861573204 1 -4.798697088
-1.931941244 1 -4.501955467
-2.798631267 1 -4.020903261
-3.550744996 1 -3.375234803
-4.157490808 1 -2.591383835
-4.594028458 1 -1.701441309
-4.842486043 1 -0.7418415755
-4.892691681 1 0.2481292391
-4.742589946 1 1.227941614
-4.398326021 1 2.157481914
-3.873994113 1 2.998694651
-3.19106043 1 3.717140478
-2.377484359 1 4.283406136
-1.466573798 1 4.674308643
-0.495621534 1 4.873844406
0.495621534 1 4.873844406
1.466573798 1 4.674308643
2.377484359 1 4.283406136
3.19106043 1 3.717140478
3.873994113 1 2.998694651
4.398326021 1 2.157481914
4.742589946 1 1.227941614
4.892691681 1 0.2481292391
4.842486043 1 -0.7418415755
4.594028458 1 -1.701441309
4.157490808 1 -2.591383835
3.550744996 1 -3.375234803
2.798631267 1 -4.020903261
1.931941244 1 -4.501955467
0.9861573204 1 -4.798697088
2.067270578 4.283266677 1.542730998
2.97846417 3.814011562 1.257802447
2.191395141 3.82040159 2.366921846
0.1632008398 4.282672434 2.575282958
1.057171271 3.810869894 3.059356069
-0.2719493076 3.810869842 3.225416968
-1.463306768 3.747096659 2.969511732
-2.389011086 3.916586458 1.988209382
-3.618842776 3.449354947 -0.07698969733
-3.211858835 3.743547935 0.8184202339
2.524796997 4.278120602 -0.5684049937
3.240382737 3.807714703 -0.03504940197
2.967784938 3.798635748 -1.327636626
2.333287339 3.762351346 -2.323893832
-2.953359616 4.000242867 -0.5250942591
-2.854607485 3.744142819 -1.683036144
-1.024413694 4.165673525 -2.568606755
-2.061773925 3.726700694 -2.619311019
1.222190331 3.981415489 -2.766691435
-1.101762335 3.520435331 -3.375300703
-0.03125441973 3.811907616 -3.235488138
0.8731307189 3.24388752 -3.703354763
2.125244787 2.997472286 -3.390943009
3.303225193 2.909426572 -2.37148484
3.954208848 2.920064042 -0.9151275212
3.988327159 2.929204812 0.7162441257
3.368124465 2.936403483 2.243495526
2.192667315 2.933342806 3.404072565
0.6593597902 2.926853046 3.999846986
-0.9607470081 2.911147682 3.949960046
-2.430622442 2.939801536 3.232590521
-3.517933967 2.929294475 2.010814383
-4.091976525 2.823176381 0.53423145
-3.868076942 2.983724273 -1.065537533
-3.163299313 2.874179207 -2.594731459
-1.940858407 2.799238822 -3.660236422
-0.3213118703 2.777580985 -4.145093793
1.205959145 2.219019226 -4.315277073
2.253342282 1.933027307 -4.023164673
3.031723539 2.051300148 -3.405997664
3.710410253 1.863157699 -2.785946723
4.135518153 2.026791212 -1.946691292
4.503703613 1.865857125 -1.111409446
4.564357381 2.034263623 -0.1685622022
4.575427309 1.870222089 0.7534814387
4.256769886 2.039278792 1.649621818
3.902024498 1.87277751 2.503379558
3.25252266 2.039817648 3.203160987
2.591476028 1.871448238 3.844728012
1.719543876 2.037779004 4.229731148
0.8622848643 1.870790863 4.555941874
-0.08734473203 2.031136266 4.568025434
-1.00197923 1.86298626 4.530487812
-1.880781487 2.034990599 4.161907527
-2.704685363 1.87646153 3.763451768
-3.368712748 2.040863751 3.080040515
-3.974530201 1.864885012 2.392762749
-4.318238157 2.005744554 1.526370859
-4.606446424 1.83086185 0.6546726111
-4.562490918 2.024384627 -0.292478217
-4.471652827 1.886754147 -1.201865126
-4.075485474 2.039497272 -2.056907638
-3.644553663 1.848191887 -2.881217685
-2.946881648 1.988018142 -3.516201419
-2.225270091 1.810488305 -4.0951563
-1.331158835 1.96208648 -4.402071422
-0.4765109067 1.777891881 -4.648874898
0.3140586409 1.837747034 -4.639402226
6.0925409e-16 0.5 -4.974937186
1.001447493 0.5 -4.873099929
1.961895608 0.5 -4.571757389
2.842023486 0.5 -4.083246564
3.605798589 0.5 -3.427567145
4.221951874 0.5 -2.631562725
4.665257953 0.5 -1.727821817
4.917567823 0.5 -0.7533436812
4.968551889 0.5 0.2519764335
4.816122857 0.5 1.246980603
4.466521189 0.5 2.190933241
3.934059619 0.5 3.045188814
3.240537186 0.5 3.774773999
2.41434678 0.5 4.349819494
1.489312732 0.5 4.746782867
0.5033060471 0.5 4.949412392
-0.5033060471 0.5 4.949412392
-1.489312732 0.5 4.746782867
-2.41434678 0.5 4.349819494
-3.240537186 0.5 3.774773999
-3.934059619 0.5 3.045188814
-4.466521189 0.5 2.190933241
-4.816122857 0.5 1.246980603
-4.968551889 0.5 0.2519764335
-4.917567823 0.5 -0.7533436812
-4.665257953 0.5 -1.727821817
-4.221951874 0.5 -2.631562725
-3.605798589 0.5 -3.427567145
-2.842023486 0.5 -4.083246564
-1.961895608 0.5 -4.571757389
-1.001447493 0.5 -4.873099929
5.999519546e-16 -1 -4.898979486
-0.9861573204 -1 -4.798697088
-1.931941244 -1 -4.501955467
-2.798631267 -1 -4.020903261
-3.550744996 -1 -3.375234803
-4.157490808 -1 -2.591383835
-4.594028458 -1 -1.701441309
-4.842486043 -1 -0.7418415755
-4.892691681 -1 0.2481292391
-4.742589946 -1 1.227941614
-4.398326021 -1 2.157481914
-3.873994113 -1 2.998694651
-3.19106043 -1 3.717140478
-2.377484359 -1 4.283406136
-1.466573798 -1 4.674308643
-0.495621534 -1 4.873844406
0.495621534 -1 4.873844406
1.466573798 -1 4.674308643
2.377484359 -1 4.283406136
3.19106043 -1 3.717140478
3.873994113 -1 2.998694651
4.398326021 -1 2.157481914
4.742589946 -1 1.227941614
4.892691681 -1 0.2481292391
4.842486043 -1 -0.7418415755
4.594028458 -1 -1.701441309
4.157490808 -1 -2.591383835
3.550744996 -1 -3.375234803
2.798631267 -1 -4.020903261
1.931941244 -1 -4.501955467
0.9861573204 -1 -4.798697088
-2.067270578 -4.283266677 1.542730998
-2.97846417 -3.814011562 1.257802447
-2.191395141 -3.82040159 2.366921846
-0.1632008398 -4.282672434 2.575282958
-1.057171271 -3.810869894 3.059356069
0.2719493076 -3.810869842 3.225416968
1.463306768 -3.747096659 2.969511732
2.389011086 -3.916586458 1.988209382
3.618842776 -3.449354947 -0.07698969733
3.211858835 -3.743547935 0.8184202339
-2.524796997 -4.278120602 -0.5684049937
-3.240382737 -3.807714703 -0.03504940197
-2.967784938 -3.798635748 -1.327636626
-2.333287339 -3.762351346 -2.323893832
2.953359616 -4.000242867 -0.5250942591
2.854607485 -3.744142819 -1.683036144
1.024413694 -4.165673525 -2.568606755
2.061773925 -3.726700694 -2.619311019
-1.222190331 -3.981415489 -2.766691435
1.101762335 -3.520435331 -3.375300703
0.03125441973 -3.811907616 -3.235488138
-0.8731307189 -3.24388752 -3.703354763
-2.125244787 -2.997472286 -3.390943009
-3.303225193 -2.909426572 -2.37148484
-3.954208848 -2.920064042 -0.9151275212
-3.988327159 -2.929204812 0.7162441257
-3.368124465 -2.936403483 2.243495526
-2.192667315 -2.933342806 3.404072565
-0.6593597902 -2.926853046 3.999846986
0.9607470081 -2.911147682 3.949960046
2.430622442 -2.939801536 3.232590521
3.517933967 -2.929294475 2.010814383
4.091976525 -2.823176381 0.53423145
3.868076942 -2.983724273 -1.065537533
3.163299313 -2.874179207 -2.594731459
1.940858407 -2.799238822 -3.660236422
0.3213118703 -2.777580985 -4.145093793
-1.205959145 -2.219019226 -4.315277073
-2.253342282 -1.933027307 -4.023164673
-3.031723539 -2.051300148 -3.405997664
-3.710410253 -1.863157699 -2.785946723
-4.135518153 -2.026791212 -1.946691292
-4.503703613 -1.865857125 -1.111409446
-4.564357381 -2.034263623 -0.1685622022
-4.575427309 -1.870222089 0.7534814387
-4.256769886 -2.039278792 1.649621818
-3.902024498 -1.87277751 2.503379558
-3.25252266 -2.039817648 3.203160987
-2.591476028 -1.871448238 3.844728012
-1.719543876 -2.037779004 4.229731148
-0.8622848643 -1.870790863 4.555941874
0.08734473203 -2.031136266 4.568025434
1.00197923 -1.86298626 4.530487812
1.880781487 -2.034990599 4.161907527
2.704685363 -1.87646153 3.763451768
3.368712748 -2.040863751 3.080040515
3.974530201 -1.864885012 2.392762749
4.318238157 -2.005744554 1.526370859
4.606446424 -1.83086185 0.6546726111
4.562490918 -2.024384627 -0.292478217
4.471652827 -1.886754147 -1.201865126
4.075485474 -2.039497272 -2.056907638
3.644553663 -1.848191887 -2.881217685
2.946881648 -1.988018142 -3.516201419
2.225270091 -1.810488305 -4.0951563
1.331158835 -1.96208648 -4.402071422
0.4765109067 -1.777891881 -4.648874898
-0.3140586409 -1.837747034 -4.639402226
6.0925409e-16 -0.5 -4.974937186
1.001447493 -0.5 -4.873099929
1.961895608 -0.5 -4.571757389
2.842023486 -0.5 -4.083246564
3.605798589 -0.5 -3.427567145
4.221951874 -0.5 -2.631562725
4.665257953 -0.5 -1.727821817
4.917567823 -0.5 -0.7533436812
4.968551889 -0.5 0.2519764335
4.816122857 -0.5 1.246980603
4.466521189 -0.5 2.190933241
3.934059619 -0.5 3.045188814
3.240537186 -0.5 3.774773999
2.41434678 -0.5 4.349819494
1.489312732 -0.5 4.746782867
0.5033060471 -0.5 4.949412392
-0.5033060471 -0.5 4.949412392
-1.489312732 -0.5 4.746782867
-2.41434678 -0.5 4.349819494
-3.240537186 -0.5 3.774773999
-3.934059619 -0.5 3.045188814
-4.466521189 -0.5 2.190933241
-4.816122857 -0.5 1.246980603
-4.968551889 -0.5 0.2519764335
-4.917567823 -0.5 -0.7533436812
-4.665257953 -0.5 -1.727821817
-4.221951874 -0.5 -2.631562725
-3.605798589 -0.5 -3.427567145
-2.842023486 -0.5 -4.083246564
-1.961895608 -0.5 -4.571757389
-1.001447493 -0.5 -4.873099929
CELLS 734 2936
3 7 2 1
3 7 3 2
3 4 3 7
3 5 4 7
3 6 5 7
3 0 6 7
3 1 0 7
3 111 238 237
3 238 110 208
3 111 110 238
3 112 237 236
3 112 111 237
3 113 236 235
3 113 112 236
3 114 235 234
3 114 113 235
3 115 234 233
3 115 114 234
3 116 233 232
3 116 115 233
3 117 232 231
3 117 116 232
3 118 231 230
3 118 117 231
3 119 230 229
3 119 118 230
3 120 229 228
3 120 119 229
3 121 228 227
3 121 120 228
3 122 227 226
3 122 121 227
3 123 226 225
3 123 122 226
3 124 225 224
3 124 123 225
3 125 224 223
3 125 124 224
3 126 223 222
3 126 125 223
3 127 222 221
3 127 126 222
3 128 221 220
3 128 127 221
3 129 220 219
3 129 128 220
3 130 219 218
3 130 129 219
3 131 218 217
3 131 130 218
3 132 217 216
3 132 131 217
3 133 215 214
3 133 216 215
3 133 132 216
3 134 214 213
3 134 133 214
3 135 134 213
3 136 213 212
3 136 135 213
3 137 212 211
3 137 136 212
3 138 211 210
3 138 137 211
3 139 210 209
3 139 138 210
3 109 209 208
3 109 139 209
3 110 109 208
3 45 76 75
3 76 46 77
3 45 46 76
3 44 75 74
3 44 45 75
3 43 74 73
3 43 44 74
3 42 73 72
3 42 43 73
3 41 72 71
3 41 42 72
3 40 71 70
3 40 41 71
3 39 70 69
3 39 40 70
3 38 69 68
3 38 39 69
3 37 68 67
3 37 38 68
3 36 67 66
3 36 37 67
3 35 66 65
3 35 36 66
3 34 65 64
3 34 35 65
3 33 64 63
3 33 34 64
3 32 63 62
3 32 33 63
3 31 62 61
3 31 32 62
3 30 61 60
3 30 31 61
3 29 60 59
3 29 30 60
3 28 59 58
3 28 29 59
3 27 58 57
3 27 28 58
3 26 57 56
3 26 27 57
3 25 56 55
3 25 26 56
3 24 55 54
3 24 25 55
3 23 54 53
3 23 24 54
3 22 53 52
3 22 23 53
3 21 52 51
3 21 22 52
3 20 51 50
3 20 21 51
3 19 50 49
3 19 20 50
3 18 49 48
3 18 19 49
3 17 18 48
3 16 47 77
3 16 48 47
3 16 17 48
3 46 16 77
3 107 49 50
3 49 108 48
3 107 108 49
3 106 50 51
3 106 107 50
3 105 51 52
3 105 106 51
3 104 52 53
3 104 105 52
3 103 53 54
3 103 104 53
3 102 54 55
3 102 103 54
3 101 55 56
3 101 102 55
3 100 56 57
3 100 101 56
3 99 57 58
3 99 100 57
3 98 58 59
3 98 99 58
3 97 59 60
3 97 98 59
3 96 60 61
3 96 97 60
3 95 61 62
3 95 96 61
3 94 62 63
3 94 95 62
3 93 63 64
3 93 94 63
3 92 64 65
3 92 93 64
3 91 65 66
3 91 92 65
3 90 66 67
3 90 91 66
3 89 67 68
3 89 90 67
3 88 68 69
3 88 89 68
3 87 69 70
3 87 88 69
3 86 87 70
3 85 70 71
3 85 86 70
3 84 72 73
3 84 71 72
3 84 85 71
3 83 73 74
3 83 84 73
3 82 83 74
3 81 74 75
3 81 82 74
3 80 76 77
3 80 75 76
3 80 81 75
3 79 77 47
3 79 80 77
3 78 47 48
3 78 79 47
3 108 78 48
3 237 45 44
3 45 238 46
3 237 238 45
3 236 44 43
3 236 237 44
3 235 236 43
3 234 42 41
3 234 43 42
3 234 235 43
3 233 41 40
3 233 234 41
3 232 233 40
3 231 39 38
3 231 40 39
3 231 232 40
3 230 38 37
3 230 231 38
3 229 37 36
3 229 230 37
3 228 229 36
3 227 36 35
3 227 228 36
3 226 34 33
3 226 35 34
3 226 227 35
3 225 33 32
3 225 226 33
3 224 32 31
3 224 225 32
3 223 31 30
3 223 224 31
3 222 223 30
3 221 30 29
3 221 222 30
3 220 29 28
3 220 221 29
3 219 27 26
3 219 28 27
3 219 220 28
3 218 26 25
3 218 219 26
3 217 218 25
3 216 25 24
3 216 217 25
3 215 24 23
3 215 216 24
3 214 23 22
3 214 215 23
3 213 21 20
3 213 22 21
3 213 214 22
3 212 20 19
3 212 213 20
3 211 212 19
3 210 19 18
3 210 211 19
3 209 18 17
3 209 210 18
3 208 16 46
3 208 17 16
3 208 209 17
3 238 208 46
3 15 10 9
3 15 11 10
3 12 11 15
3 13 12 15
3 14 13 15
3 8 14 15
3 9 8 15
3 142 144 167
3 142 3 144
3 3 140 2
3 142 140 3
3 151 141 165
3 2 141 151
3 140 141 2
3 142 141 140
3 141 166 165
3 142 166 141
3 167 166 142
3 143 4 145
3 143 3 4
3 143 144 3
3 145 144 143
3 144 168 167
3 145 168 144
3 146 147 170
3 146 4 147
3 146 145 4
3 145 169 168
3 146 169 145
3 170 169 146
3 171 170 147
3 5 147 4
3 147 149 171
3 5 149 147
3 149 172 171
3 148 172 149
3 148 173 172
3 148 154 173
3 149 154 148
3 5 154 149
3 164 151 165
3 151 150 2
3 150 1 2
3 150 152 1
3 151 152 150
3 164 152 151
3 163 152 164
3 152 153 1
3 163 153 152
3 162 153 163
3 1 158 0
3 153 158 1
3 162 158 153
3 6 154 5
3 154 155 173
3 6 155 154
3 157 155 6
3 155 174 173
3 157 174 155
3 156 0 160
3 156 6 0
3 156 157 6
3 161 162 177
3 161 158 162
3 158 160 0
3 160 159 156
3 159 157 156
3 157 175 174
3 159 175 157
3 159 176 175
3 161 160 158
3 160 176 159
3 161 176 160
3 177 176 161
3 179 162 163
3 181 163 164
3 183 164 165
3 185 165 166
3 187 166 167
3 189 167 168
3 191 168 169
3 193 169 170
3 195 170 171
3 197 171 172
3 199 172 173
3 201 173 174
3 203 174 175
3 205 175 176
3 178 177 162
3 179 178 162
3 180 179 163
3 181 180 163
3 182 181 164
3 183 182 164
3 184 183 165
3 185 184 165
3 186 185 166
3 187 186 166
3 188 187 167
3 189 188 167
3 190 189 168
3 191 190 168
3 192 191 169
3 193 192 169
3 194 193 170
3 195 194 170
3 196 195 171
3 197 196 171
3 198 197 172
3 199 198 172
3 200 199 173
3 201 200 173
3 202 201 174
3 203 202 174
3 204 203 175
3 205 204 175
3 206 205 176
3 177 207 176
3 207 206 176
3 178 138 177
3 179 137 178
3 180 136 179
3 181 135 180
3 182 134 181
3 183 133 182
3 184 132 183
3 185 131 184
3 186 130 185
3 187 129 186
3 188 128 187
3 189 127 188
3 190 126 189
3 191 125 190
3 192 124 191
3 193 123 192
3 194 122 193
3 195 121 194
3 196 120 195
3 197 119 196
3 198 118 197
3 199 117 198
3 200 116 199
3 201 115 200
3 202 114 201
3 203 113 202
3 204 112 203
3 205 111 204
3 206 110 205
3 139 207 177
3 207 109 206
3 138 139 177
3 137 138 178
3 136 137 179
3 135 136 180
3 134 135 181
3 133 134 182
3 132 133 183
3 131 132 184
3 130 131 185
3 129 130 186
3 128 129 187
3 127 128 188
3 126 127 189
3 125 126 190
3 124 125 191
3 123 124 192
3 122 123 193
3 121 122 194
3 120 121 195
3 119 120 196
3 118 119 197
3 117 118 198
3 116 117 199
3 115 116 200
3 114 115 201
3 113 114 202
3 112 113 203
3 111 112 204
3 110 111 205
3 109 110 206
3 139 109 207
3 268 340 341
3 340 269 339
3 268 269 340
3 267 341 342
3 267 268 341
3 266 342 343
3 266 267 342
3 265 343 344
3 265 266 343
3 264 265 344
3 263 345 346
3 263 344 345
3 263 264 344
3 262 346 347
3 262 263 346
3 261 347 348
3 261 262 347
3 260 348 349
3 260 261 348
3 259 349 350
3 259 260 349
3 258 350 351
3 258 259 350
3 257 258 351
3 256 352 353
3 256 351 352
3 256 257 351
3 255 353 354
3 255 256 353
3 254 354 355
3 254 255 354
3 253 355 356
3 253 254 355
3 252 356 357
3 252 253 356
3 251 357 358
3 251 252 357
3 250 358 359
3 250 251 358
3 249 359 360
3 249 250 359
3 248 360 361
3 248 249 360
3 247 361 362
3 247 248 361
3 246 362 363
3 246 247 362
3 245 363 364
3 245 246 363
3 244 364 365
3 244 245 364
3 243 365 366
3 243 244 365
3 242 366 367
3 242 243 366
3 241 367 368
3 241 242 367
3 240 368 338
3 240 241 368
3 239 338 339
3 239 240 338
3 269 239 339
3 340 108 107
3 108 339 78
3 340 339 108
3 341 107 106
3 341 340 107
3 342 106 105
3 342 341 106
3 343 105 104
3 343 342 105
3 344 104 103
3 344 343 104
3 345 103 102
3 345 344 103
3 346 102 101
3 346 345 102
3 347 101 100
3 347 346 101
3 348 100 99
3 348 347 100
3 349 99 98
3 349 348 99
3 350 98 97
3 350 349 98
3 351 97 96
3 351 350 97
3 352 96 95
3 352 351 96
3 353 95 94
3 353 352 95
3 354 94 93
3 354 353 94
3 355 93 92
3 355 354 93
3 356 92 91
3 356 355 92
3 357 91 90
3 357 356 91
3 358 90 89
3 358 357 90
3 359 89 88
3 359 358 89
3 360 88 87
3 360 359 88
3 361 87 86
3 361 360 87
3 362 86 85
3 362 361 86
3 363 85 84
3 363 362 85
3 364 84 83
3 364 363 84
3 365 83 82
3 365 364 83
3 366 82 81
3 366 365 82
3 367 81 80
3 367 366 81
3 368 80 79
3 368 367 80
3 338 79 78
3 338 368 79
3 339 338 78
3 272 274 297
3 272 11 274
3 11 270 10
3 272 270 11
3 281 271 295
3 10 271 281
3 270 271 10
3 272 271 270
3 271 296 295
3 272 296 271
3 297 296 272
3 273 12 275
3 273 11 12
3 273 274 11
3 275 274 273
3 274 298 297
3 275 298 274
3 276 277 300
3 276 12 277
3 276 275 12
3 275 299 298
3 276 299 275
3 300 299 276
3 301 300 277
3 13 277 12
3 277 279 301
3 13 279 277
3 279 302 301
3 278 302 279
3 278 303 302
3 278 284 303
3 279 284 278
3 13 284 279
3 294 281 295
3 281 280 10
3 280 9 10
3 280 282 9
3 281 282 280
3 294 282 281
3 293 282 294
3 282 283 9
3 293 283 282
3 292 283 293
3 9 288 8
3 283 288 9
3 292 288 283
3 14 284 13
3 284 285 303
3 14 285 284
3 287 285 14
3 285 304 303
3 287 304 285
3 286 8 290
3 286 14 8
3 286 287 14
3 291 292 307
3 291 288 292
3 288 290 8
3 290 289 286
3 289 287 286
3 287 305 304
3 289 305 287
3 289 306 305
3 291 290 288
3 290 306 289
3 291 306 290
3 307 306 291
3 309 292 293
3 311 293 294
3 313 294 295
3 315 295 296
3 317 296 297
3 319 297 298
3 321 298 299
3 323 299 300
3 325 300 301
3 327 301 302
3 329 302 303
3 331 303 304
3 333 304 305
3 335 305 306
3 308 307 292
3 309 308 292
3 310 309 293
3 311 310 293
3 312 311 294
3 313 312 294
3 314 313 295
3 315 314 295
3 316 315 296
3 317 316 296
3 318 317 297
3 319 318 297
3 320 319 298
3 321 320 298
3 322 321 299
3 323 322 299
3 324 323 300
3 325 324 300
3 326 325 301
3 327 326 301
3 328 327 302
3 329 328 302
3 330 329 303
3 331 330 303
3 332 331 304
3 333 332 304
3 334 333 305
3 335 334 305
3 336 335 306
3 307 337 306
3 337 336 306
3 308 241 307
3 309 242 308
3 310 243 309
3 311 244 310
3 312 245 311
3 313 246 312
3 314 247 313
3 315 248 314
3 316 249 315
3 317 250 316
3 318 251 317
3 319 252 318
3 320 253 319
3 321 254 320
3 322 255 321
3 323 256 322
3 324 257 323
3 325 258 324
3 326 259 325
3 327 260 326
3 328 261 327
3 329 262 328
3 330 263 329
3 331 264 330
3 332 265 331
3 333 266 332
3 334 267 333
3 335 268 334
3 336 269 335
3 240 337 307
3 337 239 336
3 241 240 307
3 242 241 308
3 243 242 309
3 244 243 310
3 245 244 311
3 246 245 312
3 247 246 313
3 248 247 314
3 249 248 315
3 250 249 316
3 251 250 317
3 252 251 318
3 253 252 319
3 254 253 320
3 255 254 321
3 256 255 322
3 257 256 323
3 258 257 324
3 259 258 325
3 260 259 326
3 261 260 327
3 262 261 328
3 263 262 329
3 264 263 330
3 265 264 331
3 266 265 332
3 267 266 333
3 268 267 334
3 269 268 335
3 239 269 336
3 240 239 337
CELL_TYPES 734
5
5
5
5
5
5
5
5
5
5
5
5
5
5
5
5
5
5
5
5
5
5
5
5
5
5
5
5
5
5
5
5
5
5
5
5
5
5
5
5
5
5
5
5
5
5
5
5
5
5
5
5
5
5
5
5
5
5
5
5
5
5
5
5
5
5
5
5
5
5
5
5
5
5
5
5
5
5
5
5
5
5
5
5
5
5
5
5
5
5
5
5
5
5
5
5
5
5
5
5
5
5
5
5
5
5
5
5
5
5
5
5
5
5
5
5
5
5
5
5
5
5
5
5
5
5
5
5
5
5
5
5
5
5
5
5
5
5
5
5
5
5
5
5
5
5
5
5
5
5
5
5
5
5
5
5
5
5
5
5
5
5
5
5
5
5
5
5
5
5
5
5
5
5
5
5
5
5
5
5
5
5
5
5
5
5
5
5
5
5
5
5
5
5
5
5
5
5
5
5
5
5
5
5
5
5
5
5
5
5
5
5
5
5
5
5
5
5
5
5
5
5
5
5
5
5
5
5
5
5
5
5
5
5
5
5
5
5
5
5
5
5
5
5
5
5
5
5
5
5
5
5
5
5
5
5
5
5
5
5
5
5
5
5
5
5
5
5
5
5
5
5
5
5
5
5
5
5
5
5
5
5
5
5
5
5
5
5
5
5
5
5
5
5
5
5
5
5
5
5
5
5
5
5
5
5
5
5
5
5
5
5
5
5
5
5
5
5
5
5
5
5
5
5
5
5
5
5
5
5
5
5
5
5
5
5
5
5
5
5
5
5
5
5
5
5
5
5
5
5
5
5
5
5
5
5
5
5
5
5
5
5
5
5
5
5
5
5
5
5
5
5
5
5
5
5
5
5
5
5
5
5
5
5
5
5
5
5
5
5
5
5
5
5
5
5
5
5
5
5
5
5
5
5
5
5
5
5
5
5
5
5
5
5
5
5
5
5
5
5
5
5
5
5
5
5
5
5
5
5
5
5
5
5
5
5
5
5
5
5
5
5
5
5
5
5
5
5
5
5
5
5
5
5
5
5
5
5
5
5
5
5
5
5
5
5
5
5
5
5
5
5
5
5
5
5
5
5
5
5
5
5
5
5
5
5
5
5
5
5
5
5
5
5
5
5
5
5
5
5
5
5
5
5
5
5
5
5
5
5
5
5
5
5
5
5
5
5
5
5
5
5
5
5
5
5
5
5
5
5
5
5
5
5
5
5
5
5
5
5
5
5
5
5
5
5
5
5
5
5
5
5
5
5
5
5
5
5
5
5
5
5
5
5
5
5
5
5
5
5
5
5
5
5
5
5
5
5
5
5
5
5
5
5
5
5
5
5
5
5
5
5
5
5
5
5
5
5
5
5
5
5
5
5
5
5
5
5
5
5
5
5
5
5
5
5
5
5
5
5
5
5
5
5
5
5
5
5
5
5
5
5
5
5
5
5
5
5
5
5
5
5
5
5
5
5
5
5
5
5
5
5
5
5
5
5
5
5
5
5
5
5
5
5
5
5
5
5
5
5
5
5
5
5
5
5
5
5
5
5
5
5
5
5
5
5
5
5
5
5
5
5
5
5
5
5
5
5
5
5
5
5
5
5
5
5
5
5
5
5
5
5
5
5
5
5
5
5
5
5
5
5
5
5
5
5
5
5
5
5
5
5
5
5
POINT_DATA 369
SCALARS GLOBAL_ID int 1
LOOKUP_TABLE default
1 
2 
3 
4 
5 
6 
7 
8 
9 
10 
11 
12 
13 
14 
15 
16 
17 
18 
19 
20 
21 
22 
23 
24 
25 
26 
27 
28 
29 
30 
31 
32 
33 
34 
35 
36 
37 
38 
39 
40 
41 
42 
43 
44 
45 
46 
47 
48 
49 
50 
51 
52 
53 
54 
55 
56 
57 
58 
59 
60 
61 
62 
63 
64 
65 
66 
67 
68 
69 
70 
71 
72 
73 
74 
75 
76 
77 
78 
79 
80 
81 
82 
83 
84 
85 
86 
87 
88 
89 
90 
91 
92 
93 
94 
95 
96 
97 
98 
99 
100 
101 
102 
103 
104 
105 
106 
107 
108 
109 
110 
111 
112 
113 
114 
115 
116 
117 
118 
119 
120 
121 
122 
123 
124 
125 
126 
127 
128 
129 
130 
131 
132 
133 
134 
135 
136 
137 
138 
139 
140 
141 
142 
143 
144 
145 
146 
147 
148 
149 
150 
151 
152 
153 
154 
155 
156 
157 
158 
159 
160 
161 
162 
163 
164 
165 
166 
167 
168 
169 
170 
171 
172 
173 
174 
175 
176 
177 
178 
179 
180 
181 
182 
183 
184 
185 
186 
187 
188 
189 
190 
191 
192 
193 
194 
195 
196 
197 
198 
199 
200 
201 
202 
203 
204 
205 
206 
207 
208 
209 
210 
211 
212 
213 
214 
215 
216 
217 
218 
219 
220 
221 
222 
223 
224 
225 
226 
227 
228 
229 
230 
231 
232 
233 
234 
235 
236 
237 
238 
239 
240 
241 
242 
243 
244 
245 
246 
247 
248 
249 
250 
251 
252 
253 
254 
255 
256 
257 
258 
259 
260 
261 
262 
263 
264 
265 
266 
267 
268 
269 
270 
271 
272 
273 
274 
275 
276 
277 
278 
279 
280 
281 
282 
283 
284 
285 
286 
287 
288 
289 
290 
291 
292 
293 
294 
295 
296 
297 
298 
299 
300 
301 
302 
303 
304 
305 
306 
307 
308 
309 
310 
311 
312 
313 
314 
315 
316 
317 
318 
319 
320 
321 
322 
323 
324 
325 
326 
327 
328 
329 
330 
331 
332 
333 
334 
335 
336 
337 
338 
339 
340 
341 
342 
343 
344 
345 
346 
347 
348 
349 
350 
351 
352 
353 
354 
355 
356 
357 
358 
359 
360 
361 
362 
363 
364 
365 
366 
367 
368 
369 
CELL_DATA 734
SCALARS GLOBAL_ID int 1
LOOKUP_TABLE default
7 
6 
5 
4 
3 
2 
1 
374 
373 
372 
371 
370 
369 
368 
367 
366 
365 
364 
363 
362 
361 
360 
359 
358 
357 
356 
355 
354 
353 
352 
351 
350 
349 
348 
347 
346 
345 
344 
343 
342 
341 
340 
339 
338 
337 
336 
335 
334 
333 
332 
331 
330 
329 
328 
327 
326 
325 
324 
323 
322 
321 
320 
319 
318 
317 
316 
315 
314 
313 
76 
75 
74 
73 
72 
71 
70 
69 
68 
67 
66 
65 
64 
63 
62 
61 
60 
59 
58 
57 
56 
55 
54 
53 
52 
51 
50 
49 
48 
47 
46 
45 
44 
43 
42 
41 
40 
39 
38 
37 
36 
35 
34 
33 
32 
31 
30 
29 
28 
27 
26 
25 
24 
23 
22 
21 
20 
19 
18 
17 
16 
15 
138 
137 
136 
135 
134 
133 
132 
131 
130 
129 
128 
127 
126 
125 
124 
123 
122 
121 
120 
119 
118 
117 
116 
115 
114 
113 
112 
111 
110 
109 
108 
107 
106 
105 
104 
103 
102 
101 
100 
99 
98 
97 
96 
95 
94 
93 
92 
91 
90 
89 
88 
87 
86 
85 
84 
83 
82 
81 
80 
79 
78 
77 
436 
435 
434 
433 
432 
431 
430 
429 
428 
427 
426 
425 
424 
423 
422 
421 
420 
419 
418 
417 
416 
415 
414 
413 
412 
411 
410 
409 
408 
407 
406 
405 
404 
403 
402 
401 
400 
399 
398 
397 
396 
395 
394 
393 
392 
391 
390 
389 
388 
387 
386 
385 
384 
383 
382 
381 
380 
379 
378 
377 
376 
375 
14 
13 
12 
11 
10 
9 
8 
312 
311 
310 
309 
308 
307 
306 
305 
304 
303 
302 
301 
300 
299 
298 
297 
296 
295 
294 
293 
292 
291 
290 
289 
288 
287 
286 
285 
284 
283 
282 
281 
280 
279 
278 
277 
276 
275 
274 
273 
272 
271 
270 
269 
268 
267 
266 
265 
264 
263 
262 
261 
260 
259 
258 
257 
256 
255 
254 
253 
252 
251 
250 
249 
248 
247 
246 
245 
244 
243 
242 
241 
240 
239 
238 
237 
236 
235 
234 
233 
232 
231 
230 
229 
228 
227 
226 
225 
224 
223 
222 
221 
220 
219 
218 
217 
216 
215 
214 
213 
212 
211 
210 
209 
208 
207 
206 
205 
204 
203 
202 
201 
200 
199 
198 
197 
196 
195 
194 
193 
192 
191 
190 
189 
188 
187 
186 
185 
184 
183 
182 
181 
180 
179 
178 
177 
176 
175 
174 
173 
172 
171 
170 
169 
168 
167 
166 
165 
164 
163 
162 
161 
160 
159 
158 
157 
156 
155 
154 
153 
152 
151 
150 
149 
148 
147 
146 
145 
144 
143 
142 
141 
140 
139 
672 
671 
670 
669 
668 
667 
666 
665 
664 
663 
662 
661 
660 
659 
658 
657 
656 
655 
654 
653 
652 
651 
650 
649 
648 
647 
646 
645 
644 
643 
642 
641 
640 
639 
638 
637 
636 
635 
634 
633 
632 
631 
630 
629 
628 
627 
626 
625 
624 
623 
622 
621 
620 
619 
618 
617 
616 
615 
614 
613 
612 
611 
734 
733 
732 
731 
730 
729 
728 
727 
726 
725 
724 
723 
722 
721 
720 
719 
718 
717 
716 
715 
714 
713 
712 
711 
710 
709 
708 
707 
706 
705 
704 
703 
702 
701 
700 
699 
698 
697 
696 
695 
694 
693 
692 
691 
690 
689 
688 
687 
686 
685 
684 
683 
682 
681 
680 
679 
678 
677 
676 
675 
674 
673 
610 
609 
608 
607 
606 
605 
604 
603 
602 
601 
600 
599 
598 
597 
596 
595 
594 
593 
592 
591 
590 
589 
588 
587 
586 
585 
584 
583 
582 
581 
580 
579 
578 
577 
576 
575 
574 
573 
572 
571 
570 
569 
568 
567 
566 
565 
564 
563 
562 
561 
560 
559 
558 
557 
556 
555 
554 
553 
552 
551 
550 
549 
548 
547 
546 
545 
544 
543 
542 
541 
540 
539 
538 
537 
536 
535 
534 
533 
532 
531 
530 
529 
528 
527 
526 
525 
524 
523 
522 
521 
520 
519 
518 
517 
516 
515 
514 
513 
512 
511 
510 
509 
508 
507 
506 
505 
504 
503 
502 
501 
500 
499 
498 
497 
496 
495 
494 
493 
492 
491 
490 
489 
488 
487 
486 
485 
484 
483 
482 
481 
480 
479 
478 
477 
476 
475 
474 
473 
472 
471 
470 
469 
468 
467 
466 
465 
464 
463 
462 
461 
460 
459 
458 
457 
456 
455 
454 
453 
452 
451 
450 
449 
448 
447 
446 
445 
444 
443 
442 
441 
440 
439 
438 
437 
